ITEM: TIMESTEP
0
ITEM: NUMBER OF ATOMS
1999
ITEM: BOX BOUNDS pp pp pp
-4.0000000000000000e+01 4.0000000000000000e+01
-4.0000000000000000e+01 4.0000000000000000e+01
-5.0000000000000000e+01 5.0000000000000000e+01
ITEM: ATOMS type id x y z
2 93 -1.20543 -2.74717 -50
2 112 -1.20543 -2.74717 -49
2 1993 -1.20543 -2.74717 -50
2 94 -0.248146 -2.98972 -50
2 95 0.736031 -2.90831 -50
2 113 -0.248146 -2.98972 -49
2 114 0.736031 -2.90831 -49
2 1994 -0.248146 -2.98972 -50
2 1995 0.736031 -2.90831 -50
2 91 -2.63857 -1.42756 -50
2 92 -2.0321 -2.20693 -50
2 110 -2.63857 -1.42756 -49
2 111 -2.0321 -2.20693 -49
2 1991 -2.63857 -1.42756 -50
2 1992 -2.0321 -2.20693 -50
2 96 1.64045 -2.51176 -50
2 97 2.36712 -1.84303 -50
2 115 1.64045 -2.51176 -49
2 116 2.36712 -1.84303 -49
2 1996 1.64045 -2.51176 -50
2 1997 2.36712 -1.84303 -50
2 98 2.83728 -0.974597 -50
2 117 2.83728 -0.974597 -49
2 1998 2.83728 -0.974597 -50
2 89 -2.95904 0.494044 -50
2 90 -2.95913 -0.493495 -50
2 108 -2.95904 0.494044 -49
2 109 -2.95913 -0.493495 -49
2 1989 -2.95904 0.494044 -50
2 1990 -2.95913 -0.493495 -50
2 99 3 -0.000555922 -50
2 118 3 -0.000555922 -49
2 1999 3 -0.000555922 -50
2 87 -2.03169 2.20731 -50
2 88 -2.63831 1.42805 -50
2 106 -2.03169 2.20731 -49
2 107 -2.63831 1.42805 -49
2 1987 -2.03169 2.20731 -50
2 1988 -2.63831 1.42805 -50
2 82 2.36746 1.84259 -50
2 83 1.64092 2.51145 -50
2 101 2.36746 1.84259 -49
2 102 1.64092 2.51145 -49
2 1982 2.36746 1.84259 -50
2 1983 1.64092 2.51145 -50
2 81 2.83746 0.974071 -50
2 100 2.83746 0.974071 -49
2 1981 2.83746 0.974071 -50
2 86 -1.20493 2.74739 -50
2 105 -1.20493 2.74739 -49
2 1986 -1.20493 2.74739 -50
2 84 0.73657 2.90817 -50
2 85 -0.247592 2.98977 -50
2 103 0.73657 2.90817 -49
2 104 -0.247592 2.98977 -49
2 1984 0.73657 2.90817 -50
2 1985 -0.247592 2.98977 -50
2 131 -1.20543 -2.74717 -48
2 150 -1.20543 -2.74717 -47
2 132 -0.248146 -2.98972 -48
2 133 0.736031 -2.90831 -48
2 151 -0.248146 -2.98972 -47
2 152 0.736031 -2.90831 -47
2 129 -2.63857 -1.42756 -48
2 130 -2.0321 -2.20693 -48
2 148 -2.63857 -1.42756 -47
2 149 -2.0321 -2.20693 -47
2 134 1.64045 -2.51176 -48
2 135 2.36712 -1.84303 -48
2 153 1.64045 -2.51176 -47
2 154 2.36712 -1.84303 -47
2 136 2.83728 -0.974597 -48
2 155 2.83728 -0.974597 -47
2 127 -2.95904 0.494044 -48
2 128 -2.95913 -0.493495 -48
2 146 -2.95904 0.494044 -47
2 147 -2.95913 -0.493495 -47
2 137 3 -0.000555922 -48
2 156 3 -0.000555922 -47
2 125 -2.03169 2.20731 -48
2 126 -2.63831 1.42805 -48
2 144 -2.03169 2.20731 -47
2 145 -2.63831 1.42805 -47
2 120 2.36746 1.84259 -48
2 121 1.64092 2.51145 -48
2 139 2.36746 1.84259 -47
2 140 1.64092 2.51145 -47
2 119 2.83746 0.974071 -48
2 138 2.83746 0.974071 -47
2 124 -1.20493 2.74739 -48
2 143 -1.20493 2.74739 -47
2 122 0.73657 2.90817 -48
2 123 -0.247592 2.98977 -48
2 141 0.73657 2.90817 -47
2 142 -0.247592 2.98977 -47
2 169 -1.20543 -2.74717 -46
2 188 -1.20543 -2.74717 -45
2 170 -0.248146 -2.98972 -46
2 171 0.736031 -2.90831 -46
2 189 -0.248146 -2.98972 -45
2 190 0.736031 -2.90831 -45
2 167 -2.63857 -1.42756 -46
2 168 -2.0321 -2.20693 -46
2 186 -2.63857 -1.42756 -45
2 187 -2.0321 -2.20693 -45
2 172 1.64045 -2.51176 -46
2 173 2.36712 -1.84303 -46
2 191 1.64045 -2.51176 -45
2 192 2.36712 -1.84303 -45
2 174 2.83728 -0.974597 -46
2 193 2.83728 -0.974597 -45
2 165 -2.95904 0.494044 -46
2 166 -2.95913 -0.493495 -46
2 184 -2.95904 0.494044 -45
2 185 -2.95913 -0.493495 -45
2 175 3 -0.000555922 -46
2 194 3 -0.000555922 -45
2 163 -2.03169 2.20731 -46
2 164 -2.63831 1.42805 -46
2 182 -2.03169 2.20731 -45
2 183 -2.63831 1.42805 -45
2 158 2.36746 1.84259 -46
2 159 1.64092 2.51145 -46
2 177 2.36746 1.84259 -45
2 178 1.64092 2.51145 -45
2 157 2.83746 0.974071 -46
2 176 2.83746 0.974071 -45
2 162 -1.20493 2.74739 -46
2 181 -1.20493 2.74739 -45
2 160 0.73657 2.90817 -46
2 161 -0.247592 2.98977 -46
2 179 0.73657 2.90817 -45
2 180 -0.247592 2.98977 -45
2 207 -1.20543 -2.74717 -44
2 226 -1.20543 -2.74717 -43
2 208 -0.248146 -2.98972 -44
2 209 0.736031 -2.90831 -44
2 227 -0.248146 -2.98972 -43
2 228 0.736031 -2.90831 -43
2 205 -2.63857 -1.42756 -44
2 206 -2.0321 -2.20693 -44
2 224 -2.63857 -1.42756 -43
2 225 -2.0321 -2.20693 -43
2 210 1.64045 -2.51176 -44
2 211 2.36712 -1.84303 -44
2 229 1.64045 -2.51176 -43
2 230 2.36712 -1.84303 -43
2 212 2.83728 -0.974597 -44
2 231 2.83728 -0.974597 -43
2 203 -2.95904 0.494044 -44
2 204 -2.95913 -0.493495 -44
2 222 -2.95904 0.494044 -43
2 223 -2.95913 -0.493495 -43
2 213 3 -0.000555922 -44
2 232 3 -0.000555922 -43
2 201 -2.03169 2.20731 -44
2 202 -2.63831 1.42805 -44
2 220 -2.03169 2.20731 -43
2 221 -2.63831 1.42805 -43
2 196 2.36746 1.84259 -44
2 197 1.64092 2.51145 -44
2 215 2.36746 1.84259 -43
2 216 1.64092 2.51145 -43
2 195 2.83746 0.974071 -44
2 214 2.83746 0.974071 -43
2 200 -1.20493 2.74739 -44
2 219 -1.20493 2.74739 -43
2 198 0.73657 2.90817 -44
2 199 -0.247592 2.98977 -44
2 217 0.73657 2.90817 -43
2 218 -0.247592 2.98977 -43
2 245 -1.20543 -2.74717 -42
2 246 -0.248146 -2.98972 -42
2 247 0.736031 -2.90831 -42
2 243 -2.63857 -1.42756 -42
2 244 -2.0321 -2.20693 -42
2 248 1.64045 -2.51176 -42
2 249 2.36712 -1.84303 -42
2 250 2.83728 -0.974597 -42
2 241 -2.95904 0.494044 -42
2 242 -2.95913 -0.493495 -42
2 251 3 -0.000555922 -42
2 239 -2.03169 2.20731 -42
2 240 -2.63831 1.42805 -42
2 234 2.36746 1.84259 -42
2 235 1.64092 2.51145 -42
2 233 2.83746 0.974071 -42
2 238 -1.20493 2.74739 -42
2 236 0.73657 2.90817 -42
2 237 -0.247592 2.98977 -42
2 264 -1.20543 -2.74717 -41
2 283 -1.20543 -2.74717 -40
2 265 -0.248146 -2.98972 -41
2 266 0.736031 -2.90831 -41
2 284 -0.248146 -2.98972 -40
2 285 0.736031 -2.90831 -40
2 262 -2.63857 -1.42756 -41
2 263 -2.0321 -2.20693 -41
2 281 -2.63857 -1.42756 -40
2 282 -2.0321 -2.20693 -40
2 267 1.64045 -2.51176 -41
2 268 2.36712 -1.84303 -41
2 286 1.64045 -2.51176 -40
2 287 2.36712 -1.84303 -40
2 269 2.83728 -0.974597 -41
2 288 2.83728 -0.974597 -40
2 260 -2.95904 0.494044 -41
2 261 -2.95913 -0.493495 -41
2 279 -2.95904 0.494044 -40
2 280 -2.95913 -0.493495 -40
2 270 3 -0.000555922 -41
2 289 3 -0.000555922 -40
2 258 -2.03169 2.20731 -41
2 259 -2.63831 1.42805 -41
2 277 -2.03169 2.20731 -40
2 278 -2.63831 1.42805 -40
2 253 2.36746 1.84259 -41
2 254 1.64092 2.51145 -41
2 272 2.36746 1.84259 -40
2 273 1.64092 2.51145 -40
2 252 2.83746 0.974071 -41
2 271 2.83746 0.974071 -40
2 257 -1.20493 2.74739 -41
2 276 -1.20493 2.74739 -40
2 255 0.73657 2.90817 -41
2 256 -0.247592 2.98977 -41
2 274 0.73657 2.90817 -40
2 275 -0.247592 2.98977 -40
2 302 -1.20543 -2.74717 -39
2 321 -1.20543 -2.74717 -38
2 303 -0.248146 -2.98972 -39
2 304 0.736031 -2.90831 -39
2 322 -0.248146 -2.98972 -38
2 323 0.736031 -2.90831 -38
2 300 -2.63857 -1.42756 -39
2 301 -2.0321 -2.20693 -39
2 319 -2.63857 -1.42756 -38
2 320 -2.0321 -2.20693 -38
2 305 1.64045 -2.51176 -39
2 306 2.36712 -1.84303 -39
2 324 1.64045 -2.51176 -38
2 325 2.36712 -1.84303 -38
2 307 2.83728 -0.974597 -39
2 326 2.83728 -0.974597 -38
2 298 -2.95904 0.494044 -39
2 299 -2.95913 -0.493495 -39
2 317 -2.95904 0.494044 -38
2 318 -2.95913 -0.493495 -38
2 308 3 -0.000555922 -39
2 327 3 -0.000555922 -38
2 296 -2.03169 2.20731 -39
2 297 -2.63831 1.42805 -39
2 315 -2.03169 2.20731 -38
2 316 -2.63831 1.42805 -38
2 291 2.36746 1.84259 -39
2 292 1.64092 2.51145 -39
2 310 2.36746 1.84259 -38
2 311 1.64092 2.51145 -38
2 290 2.83746 0.974071 -39
2 309 2.83746 0.974071 -38
2 295 -1.20493 2.74739 -39
2 314 -1.20493 2.74739 -38
2 293 0.73657 2.90817 -39
2 294 -0.247592 2.98977 -39
2 312 0.73657 2.90817 -38
2 313 -0.247592 2.98977 -38
2 340 -1.20543 -2.74717 -37
2 359 -1.20543 -2.74717 -36
2 341 -0.248146 -2.98972 -37
2 342 0.736031 -2.90831 -37
2 360 -0.248146 -2.98972 -36
2 361 0.736031 -2.90831 -36
2 338 -2.63857 -1.42756 -37
2 339 -2.0321 -2.20693 -37
2 357 -2.63857 -1.42756 -36
2 358 -2.0321 -2.20693 -36
2 343 1.64045 -2.51176 -37
2 344 2.36712 -1.84303 -37
2 362 1.64045 -2.51176 -36
2 363 2.36712 -1.84303 -36
2 345 2.83728 -0.974597 -37
2 364 2.83728 -0.974597 -36
2 336 -2.95904 0.494044 -37
2 337 -2.95913 -0.493495 -37
2 355 -2.95904 0.494044 -36
2 356 -2.95913 -0.493495 -36
2 346 3 -0.000555922 -37
2 365 3 -0.000555922 -36
2 334 -2.03169 2.20731 -37
2 335 -2.63831 1.42805 -37
2 353 -2.03169 2.20731 -36
2 354 -2.63831 1.42805 -36
2 329 2.36746 1.84259 -37
2 330 1.64092 2.51145 -37
2 348 2.36746 1.84259 -36
2 349 1.64092 2.51145 -36
2 328 2.83746 0.974071 -37
2 347 2.83746 0.974071 -36
2 333 -1.20493 2.74739 -37
2 352 -1.20493 2.74739 -36
2 331 0.73657 2.90817 -37
2 332 -0.247592 2.98977 -37
2 350 0.73657 2.90817 -36
2 351 -0.247592 2.98977 -36
2 378 -1.20543 -2.74717 -35
2 379 -0.248146 -2.98972 -35
2 380 0.736031 -2.90831 -35
2 376 -2.63857 -1.42756 -35
2 377 -2.0321 -2.20693 -35
2 381 1.64045 -2.51176 -35
2 382 2.36712 -1.84303 -35
2 383 2.83728 -0.974597 -35
2 374 -2.95904 0.494044 -35
2 375 -2.95913 -0.493495 -35
2 384 3 -0.000555922 -35
2 372 -2.03169 2.20731 -35
2 373 -2.63831 1.42805 -35
2 367 2.36746 1.84259 -35
2 368 1.64092 2.51145 -35
2 366 2.83746 0.974071 -35
2 371 -1.20493 2.74739 -35
2 369 0.73657 2.90817 -35
2 370 -0.247592 2.98977 -35
2 397 -1.20543 -2.74717 -34
2 416 -1.20543 -2.74717 -33
2 398 -0.248146 -2.98972 -34
2 399 0.736031 -2.90831 -34
2 417 -0.248146 -2.98972 -33
2 418 0.736031 -2.90831 -33
2 395 -2.63857 -1.42756 -34
2 396 -2.0321 -2.20693 -34
2 414 -2.63857 -1.42756 -33
2 415 -2.0321 -2.20693 -33
2 400 1.64045 -2.51176 -34
2 401 2.36712 -1.84303 -34
2 419 1.64045 -2.51176 -33
2 420 2.36712 -1.84303 -33
2 402 2.83728 -0.974597 -34
2 421 2.83728 -0.974597 -33
2 393 -2.95904 0.494044 -34
2 394 -2.95913 -0.493495 -34
2 412 -2.95904 0.494044 -33
2 413 -2.95913 -0.493495 -33
2 403 3 -0.000555922 -34
2 422 3 -0.000555922 -33
2 391 -2.03169 2.20731 -34
2 392 -2.63831 1.42805 -34
2 410 -2.03169 2.20731 -33
2 411 -2.63831 1.42805 -33
2 386 2.36746 1.84259 -34
2 387 1.64092 2.51145 -34
2 405 2.36746 1.84259 -33
2 406 1.64092 2.51145 -33
2 385 2.83746 0.974071 -34
2 404 2.83746 0.974071 -33
2 390 -1.20493 2.74739 -34
2 409 -1.20493 2.74739 -33
2 388 0.73657 2.90817 -34
2 389 -0.247592 2.98977 -34
2 407 0.73657 2.90817 -33
2 408 -0.247592 2.98977 -33
2 435 -1.20543 -2.74717 -32
2 454 -1.20543 -2.74717 -31
2 436 -0.248146 -2.98972 -32
2 437 0.736031 -2.90831 -32
2 455 -0.248146 -2.98972 -31
2 456 0.736031 -2.90831 -31
2 433 -2.63857 -1.42756 -32
2 434 -2.0321 -2.20693 -32
2 452 -2.63857 -1.42756 -31
2 453 -2.0321 -2.20693 -31
2 438 1.64045 -2.51176 -32
2 439 2.36712 -1.84303 -32
2 457 1.64045 -2.51176 -31
2 458 2.36712 -1.84303 -31
2 440 2.83728 -0.974597 -32
2 459 2.83728 -0.974597 -31
2 431 -2.95904 0.494044 -32
2 432 -2.95913 -0.493495 -32
2 450 -2.95904 0.494044 -31
2 451 -2.95913 -0.493495 -31
2 441 3 -0.000555922 -32
2 460 3 -0.000555922 -31
2 429 -2.03169 2.20731 -32
2 430 -2.63831 1.42805 -32
2 448 -2.03169 2.20731 -31
2 449 -2.63831 1.42805 -31
2 424 2.36746 1.84259 -32
2 425 1.64092 2.51145 -32
2 443 2.36746 1.84259 -31
2 444 1.64092 2.51145 -31
2 423 2.83746 0.974071 -32
2 442 2.83746 0.974071 -31
2 428 -1.20493 2.74739 -32
2 447 -1.20493 2.74739 -31
2 426 0.73657 2.90817 -32
2 427 -0.247592 2.98977 -32
2 445 0.73657 2.90817 -31
2 446 -0.247592 2.98977 -31
2 473 -1.20543 -2.74717 -30
2 492 -1.20543 -2.74717 -29
2 474 -0.248146 -2.98972 -30
2 475 0.736031 -2.90831 -30
2 493 -0.248146 -2.98972 -29
2 494 0.736031 -2.90831 -29
2 471 -2.63857 -1.42756 -30
2 472 -2.0321 -2.20693 -30
2 490 -2.63857 -1.42756 -29
2 491 -2.0321 -2.20693 -29
2 476 1.64045 -2.51176 -30
2 477 2.36712 -1.84303 -30
2 495 1.64045 -2.51176 -29
2 496 2.36712 -1.84303 -29
2 478 2.83728 -0.974597 -30
2 497 2.83728 -0.974597 -29
2 469 -2.95904 0.494044 -30
2 470 -2.95913 -0.493495 -30
2 488 -2.95904 0.494044 -29
2 489 -2.95913 -0.493495 -29
2 479 3 -0.000555922 -30
2 498 3 -0.000555922 -29
2 467 -2.03169 2.20731 -30
2 468 -2.63831 1.42805 -30
2 486 -2.03169 2.20731 -29
2 487 -2.63831 1.42805 -29
2 462 2.36746 1.84259 -30
2 463 1.64092 2.51145 -30
2 481 2.36746 1.84259 -29
2 482 1.64092 2.51145 -29
2 461 2.83746 0.974071 -30
2 480 2.83746 0.974071 -29
2 466 -1.20493 2.74739 -30
2 485 -1.20493 2.74739 -29
2 464 0.73657 2.90817 -30
2 465 -0.247592 2.98977 -30
2 483 0.73657 2.90817 -29
2 484 -0.247592 2.98977 -29
2 511 -1.20543 -2.74717 -28
2 512 -0.248146 -2.98972 -28
2 513 0.736031 -2.90831 -28
2 509 -2.63857 -1.42756 -28
2 510 -2.0321 -2.20693 -28
2 514 1.64045 -2.51176 -28
2 515 2.36712 -1.84303 -28
2 516 2.83728 -0.974597 -28
2 507 -2.95904 0.494044 -28
2 508 -2.95913 -0.493495 -28
2 517 3 -0.000555922 -28
2 505 -2.03169 2.20731 -28
2 506 -2.63831 1.42805 -28
2 500 2.36746 1.84259 -28
2 501 1.64092 2.51145 -28
2 499 2.83746 0.974071 -28
2 504 -1.20493 2.74739 -28
2 502 0.73657 2.90817 -28
2 503 -0.247592 2.98977 -28
2 530 -1.20543 -2.74717 -27
2 549 -1.20543 -2.74717 -26
2 531 -0.248146 -2.98972 -27
2 532 0.736031 -2.90831 -27
2 550 -0.248146 -2.98972 -26
2 551 0.736031 -2.90831 -26
2 528 -2.63857 -1.42756 -27
2 529 -2.0321 -2.20693 -27
2 547 -2.63857 -1.42756 -26
2 548 -2.0321 -2.20693 -26
2 533 1.64045 -2.51176 -27
2 534 2.36712 -1.84303 -27
2 552 1.64045 -2.51176 -26
2 553 2.36712 -1.84303 -26
2 535 2.83728 -0.974597 -27
2 554 2.83728 -0.974597 -26
2 526 -2.95904 0.494044 -27
2 527 -2.95913 -0.493495 -27
2 545 -2.95904 0.494044 -26
2 546 -2.95913 -0.493495 -26
2 536 3 -0.000555922 -27
2 555 3 -0.000555922 -26
2 524 -2.03169 2.20731 -27
2 525 -2.63831 1.42805 -27
2 543 -2.03169 2.20731 -26
2 544 -2.63831 1.42805 -26
2 519 2.36746 1.84259 -27
2 520 1.64092 2.51145 -27
2 538 2.36746 1.84259 -26
2 539 1.64092 2.51145 -26
2 518 2.83746 0.974071 -27
2 537 2.83746 0.974071 -26
2 523 -1.20493 2.74739 -27
2 542 -1.20493 2.74739 -26
2 521 0.73657 2.90817 -27
2 522 -0.247592 2.98977 -27
2 540 0.73657 2.90817 -26
2 541 -0.247592 2.98977 -26
2 568 -1.20543 -2.74717 -25
2 587 -1.20543 -2.74717 -24
2 569 -0.248146 -2.98972 -25
2 570 0.736031 -2.90831 -25
2 588 -0.248146 -2.98972 -24
2 589 0.736031 -2.90831 -24
2 566 -2.63857 -1.42756 -25
2 567 -2.0321 -2.20693 -25
2 585 -2.63857 -1.42756 -24
2 586 -2.0321 -2.20693 -24
2 571 1.64045 -2.51176 -25
2 572 2.36712 -1.84303 -25
2 590 1.64045 -2.51176 -24
2 591 2.36712 -1.84303 -24
2 573 2.83728 -0.974597 -25
2 592 2.83728 -0.974597 -24
2 564 -2.95904 0.494044 -25
2 565 -2.95913 -0.493495 -25
2 583 -2.95904 0.494044 -24
2 584 -2.95913 -0.493495 -24
2 574 3 -0.000555922 -25
2 593 3 -0.000555922 -24
2 562 -2.03169 2.20731 -25
2 563 -2.63831 1.42805 -25
2 581 -2.03169 2.20731 -24
2 582 -2.63831 1.42805 -24
2 557 2.36746 1.84259 -25
2 558 1.64092 2.51145 -25
2 576 2.36746 1.84259 -24
2 577 1.64092 2.51145 -24
2 556 2.83746 0.974071 -25
2 575 2.83746 0.974071 -24
2 561 -1.20493 2.74739 -25
2 580 -1.20493 2.74739 -24
2 559 0.73657 2.90817 -25
2 560 -0.247592 2.98977 -25
2 578 0.73657 2.90817 -24
2 579 -0.247592 2.98977 -24
2 606 -1.20543 -2.74717 -23
2 625 -1.20543 -2.74717 -22
2 607 -0.248146 -2.98972 -23
2 608 0.736031 -2.90831 -23
2 626 -0.248146 -2.98972 -22
2 627 0.736031 -2.90831 -22
2 604 -2.63857 -1.42756 -23
2 605 -2.0321 -2.20693 -23
2 623 -2.63857 -1.42756 -22
2 624 -2.0321 -2.20693 -22
2 609 1.64045 -2.51176 -23
2 610 2.36712 -1.84303 -23
2 628 1.64045 -2.51176 -22
2 629 2.36712 -1.84303 -22
2 611 2.83728 -0.974597 -23
2 630 2.83728 -0.974597 -22
2 602 -2.95904 0.494044 -23
2 603 -2.95913 -0.493495 -23
2 621 -2.95904 0.494044 -22
2 622 -2.95913 -0.493495 -22
2 612 3 -0.000555922 -23
2 631 3 -0.000555922 -22
2 600 -2.03169 2.20731 -23
2 601 -2.63831 1.42805 -23
2 619 -2.03169 2.20731 -22
2 620 -2.63831 1.42805 -22
2 595 2.36746 1.84259 -23
2 596 1.64092 2.51145 -23
2 614 2.36746 1.84259 -22
2 615 1.64092 2.51145 -22
2 594 2.83746 0.974071 -23
2 613 2.83746 0.974071 -22
2 599 -1.20493 2.74739 -23
2 618 -1.20493 2.74739 -22
2 597 0.73657 2.90817 -23
2 598 -0.247592 2.98977 -23
2 616 0.73657 2.90817 -22
2 617 -0.247592 2.98977 -22
2 644 -1.20543 -2.74717 -21
2 645 -0.248146 -2.98972 -21
2 646 0.736031 -2.90831 -21
2 642 -2.63857 -1.42756 -21
2 643 -2.0321 -2.20693 -21
2 647 1.64045 -2.51176 -21
2 648 2.36712 -1.84303 -21
2 649 2.83728 -0.974597 -21
2 640 -2.95904 0.494044 -21
2 641 -2.95913 -0.493495 -21
2 650 3 -0.000555922 -21
2 638 -2.03169 2.20731 -21
2 639 -2.63831 1.42805 -21
2 633 2.36746 1.84259 -21
2 634 1.64092 2.51145 -21
2 632 2.83746 0.974071 -21
2 637 -1.20493 2.74739 -21
2 635 0.73657 2.90817 -21
2 636 -0.247592 2.98977 -21
2 663 -1.20543 -2.74717 -20
2 682 -1.20543 -2.74717 -19
2 664 -0.248146 -2.98972 -20
2 665 0.736031 -2.90831 -20
2 683 -0.248146 -2.98972 -19
2 684 0.736031 -2.90831 -19
2 661 -2.63857 -1.42756 -20
2 662 -2.0321 -2.20693 -20
2 680 -2.63857 -1.42756 -19
2 681 -2.0321 -2.20693 -19
2 666 1.64045 -2.51176 -20
2 667 2.36712 -1.84303 -20
2 685 1.64045 -2.51176 -19
2 686 2.36712 -1.84303 -19
2 668 2.83728 -0.974597 -20
2 687 2.83728 -0.974597 -19
2 659 -2.95904 0.494044 -20
2 660 -2.95913 -0.493495 -20
2 678 -2.95904 0.494044 -19
2 679 -2.95913 -0.493495 -19
2 669 3 -0.000555922 -20
2 688 3 -0.000555922 -19
2 657 -2.03169 2.20731 -20
2 658 -2.63831 1.42805 -20
2 676 -2.03169 2.20731 -19
2 677 -2.63831 1.42805 -19
2 652 2.36746 1.84259 -20
2 653 1.64092 2.51145 -20
2 671 2.36746 1.84259 -19
2 672 1.64092 2.51145 -19
2 651 2.83746 0.974071 -20
2 670 2.83746 0.974071 -19
2 656 -1.20493 2.74739 -20
2 675 -1.20493 2.74739 -19
2 654 0.73657 2.90817 -20
2 655 -0.247592 2.98977 -20
2 673 0.73657 2.90817 -19
2 674 -0.247592 2.98977 -19
2 701 -1.20543 -2.74717 -18
2 720 -1.20543 -2.74717 -17
2 702 -0.248146 -2.98972 -18
2 703 0.736031 -2.90831 -18
2 721 -0.248146 -2.98972 -17
2 722 0.736031 -2.90831 -17
2 699 -2.63857 -1.42756 -18
2 700 -2.0321 -2.20693 -18
2 718 -2.63857 -1.42756 -17
2 719 -2.0321 -2.20693 -17
2 704 1.64045 -2.51176 -18
2 705 2.36712 -1.84303 -18
2 723 1.64045 -2.51176 -17
2 724 2.36712 -1.84303 -17
2 706 2.83728 -0.974597 -18
2 725 2.83728 -0.974597 -17
2 697 -2.95904 0.494044 -18
2 698 -2.95913 -0.493495 -18
2 716 -2.95904 0.494044 -17
2 717 -2.95913 -0.493495 -17
2 707 3 -0.000555922 -18
2 726 3 -0.000555922 -17
2 695 -2.03169 2.20731 -18
2 696 -2.63831 1.42805 -18
2 714 -2.03169 2.20731 -17
2 715 -2.63831 1.42805 -17
2 690 2.36746 1.84259 -18
2 691 1.64092 2.51145 -18
2 709 2.36746 1.84259 -17
2 710 1.64092 2.51145 -17
2 689 2.83746 0.974071 -18
2 708 2.83746 0.974071 -17
2 694 -1.20493 2.74739 -18
2 713 -1.20493 2.74739 -17
2 692 0.73657 2.90817 -18
2 693 -0.247592 2.98977 -18
2 711 0.73657 2.90817 -17
2 712 -0.247592 2.98977 -17
2 739 -1.20543 -2.74717 -16
2 758 -1.20543 -2.74717 -15
2 740 -0.248146 -2.98972 -16
2 741 0.736031 -2.90831 -16
2 759 -0.248146 -2.98972 -15
2 760 0.736031 -2.90831 -15
2 737 -2.63857 -1.42756 -16
2 738 -2.0321 -2.20693 -16
2 756 -2.63857 -1.42756 -15
2 757 -2.0321 -2.20693 -15
2 742 1.64045 -2.51176 -16
2 743 2.36712 -1.84303 -16
2 761 1.64045 -2.51176 -15
2 762 2.36712 -1.84303 -15
2 744 2.83728 -0.974597 -16
2 763 2.83728 -0.974597 -15
2 735 -2.95904 0.494044 -16
2 736 -2.95913 -0.493495 -16
2 754 -2.95904 0.494044 -15
2 755 -2.95913 -0.493495 -15
2 745 3 -0.000555922 -16
2 764 3 -0.000555922 -15
2 733 -2.03169 2.20731 -16
2 734 -2.63831 1.42805 -16
2 752 -2.03169 2.20731 -15
2 753 -2.63831 1.42805 -15
2 728 2.36746 1.84259 -16
2 729 1.64092 2.51145 -16
2 747 2.36746 1.84259 -15
2 748 1.64092 2.51145 -15
2 727 2.83746 0.974071 -16
2 746 2.83746 0.974071 -15
2 732 -1.20493 2.74739 -16
2 751 -1.20493 2.74739 -15
2 730 0.73657 2.90817 -16
2 731 -0.247592 2.98977 -16
2 749 0.73657 2.90817 -15
2 750 -0.247592 2.98977 -15
2 777 -1.20543 -2.74717 -14
2 778 -0.248146 -2.98972 -14
2 779 0.736031 -2.90831 -14
2 775 -2.63857 -1.42756 -14
2 776 -2.0321 -2.20693 -14
2 780 1.64045 -2.51176 -14
2 781 2.36712 -1.84303 -14
2 782 2.83728 -0.974597 -14
2 773 -2.95904 0.494044 -14
2 774 -2.95913 -0.493495 -14
2 783 3 -0.000555922 -14
2 771 -2.03169 2.20731 -14
2 772 -2.63831 1.42805 -14
2 766 2.36746 1.84259 -14
2 767 1.64092 2.51145 -14
2 765 2.83746 0.974071 -14
2 770 -1.20493 2.74739 -14
2 768 0.73657 2.90817 -14
2 769 -0.247592 2.98977 -14
2 796 -1.20543 -2.74717 -13
2 815 -1.20543 -2.74717 -12
2 797 -0.248146 -2.98972 -13
2 798 0.736031 -2.90831 -13
2 816 -0.248146 -2.98972 -12
2 817 0.736031 -2.90831 -12
2 794 -2.63857 -1.42756 -13
2 795 -2.0321 -2.20693 -13
2 813 -2.63857 -1.42756 -12
2 814 -2.0321 -2.20693 -12
2 799 1.64045 -2.51176 -13
2 800 2.36712 -1.84303 -13
2 818 1.64045 -2.51176 -12
2 819 2.36712 -1.84303 -12
2 801 2.83728 -0.974597 -13
2 820 2.83728 -0.974597 -12
2 792 -2.95904 0.494044 -13
2 793 -2.95913 -0.493495 -13
2 811 -2.95904 0.494044 -12
2 812 -2.95913 -0.493495 -12
2 802 3 -0.000555922 -13
2 821 3 -0.000555922 -12
2 790 -2.03169 2.20731 -13
2 791 -2.63831 1.42805 -13
2 809 -2.03169 2.20731 -12
2 810 -2.63831 1.42805 -12
2 785 2.36746 1.84259 -13
2 786 1.64092 2.51145 -13
2 804 2.36746 1.84259 -12
2 805 1.64092 2.51145 -12
2 784 2.83746 0.974071 -13
2 803 2.83746 0.974071 -12
2 789 -1.20493 2.74739 -13
2 808 -1.20493 2.74739 -12
2 787 0.73657 2.90817 -13
2 788 -0.247592 2.98977 -13
2 806 0.73657 2.90817 -12
2 807 -0.247592 2.98977 -12
2 834 -1.20543 -2.74717 -11
2 853 -1.20543 -2.74717 -10
2 835 -0.248146 -2.98972 -11
2 836 0.736031 -2.90831 -11
2 854 -0.248146 -2.98972 -10
2 855 0.736031 -2.90831 -10
2 832 -2.63857 -1.42756 -11
2 833 -2.0321 -2.20693 -11
2 851 -2.63857 -1.42756 -10
2 852 -2.0321 -2.20693 -10
2 837 1.64045 -2.51176 -11
2 838 2.36712 -1.84303 -11
2 856 1.64045 -2.51176 -10
2 857 2.36712 -1.84303 -10
2 839 2.83728 -0.974597 -11
2 858 2.83728 -0.974597 -10
2 830 -2.95904 0.494044 -11
2 831 -2.95913 -0.493495 -11
2 849 -2.95904 0.494044 -10
2 850 -2.95913 -0.493495 -10
2 840 3 -0.000555922 -11
2 859 3 -0.000555922 -10
2 828 -2.03169 2.20731 -11
2 829 -2.63831 1.42805 -11
2 847 -2.03169 2.20731 -10
2 848 -2.63831 1.42805 -10
2 823 2.36746 1.84259 -11
2 824 1.64092 2.51145 -11
2 842 2.36746 1.84259 -10
2 843 1.64092 2.51145 -10
2 822 2.83746 0.974071 -11
2 841 2.83746 0.974071 -10
2 827 -1.20493 2.74739 -11
2 846 -1.20493 2.74739 -10
2 825 0.73657 2.90817 -11
2 826 -0.247592 2.98977 -11
2 844 0.73657 2.90817 -10
2 845 -0.247592 2.98977 -10
2 872 -1.20543 -2.74717 -9
2 891 -1.20543 -2.74717 -8
2 873 -0.248146 -2.98972 -9
2 874 0.736031 -2.90831 -9
2 892 -0.248146 -2.98972 -8
2 893 0.736031 -2.90831 -8
2 870 -2.63857 -1.42756 -9
2 871 -2.0321 -2.20693 -9
2 889 -2.63857 -1.42756 -8
2 890 -2.0321 -2.20693 -8
2 875 1.64045 -2.51176 -9
2 876 2.36712 -1.84303 -9
2 894 1.64045 -2.51176 -8
2 895 2.36712 -1.84303 -8
2 877 2.83728 -0.974597 -9
2 896 2.83728 -0.974597 -8
2 868 -2.95904 0.494044 -9
2 869 -2.95913 -0.493495 -9
2 887 -2.95904 0.494044 -8
2 888 -2.95913 -0.493495 -8
2 878 3 -0.000555922 -9
2 897 3 -0.000555922 -8
2 866 -2.03169 2.20731 -9
2 867 -2.63831 1.42805 -9
2 885 -2.03169 2.20731 -8
2 886 -2.63831 1.42805 -8
2 861 2.36746 1.84259 -9
2 862 1.64092 2.51145 -9
2 880 2.36746 1.84259 -8
2 881 1.64092 2.51145 -8
2 860 2.83746 0.974071 -9
2 879 2.83746 0.974071 -8
2 865 -1.20493 2.74739 -9
2 884 -1.20493 2.74739 -8
2 863 0.73657 2.90817 -9
2 864 -0.247592 2.98977 -9
2 882 0.73657 2.90817 -8
2 883 -0.247592 2.98977 -8
2 910 -1.20543 -2.74717 -7
2 911 -0.248146 -2.98972 -7
2 912 0.736031 -2.90831 -7
2 908 -2.63857 -1.42756 -7
2 909 -2.0321 -2.20693 -7
2 913 1.64045 -2.51176 -7
2 914 2.36712 -1.84303 -7
2 915 2.83728 -0.974597 -7
2 906 -2.95904 0.494044 -7
2 907 -2.95913 -0.493495 -7
2 916 3 -0.000555922 -7
2 904 -2.03169 2.20731 -7
2 905 -2.63831 1.42805 -7
2 899 2.36746 1.84259 -7
2 900 1.64092 2.51145 -7
2 898 2.83746 0.974071 -7
2 903 -1.20493 2.74739 -7
2 901 0.73657 2.90817 -7
2 902 -0.247592 2.98977 -7
2 929 -1.20543 -2.74717 -6
2 948 -1.20543 -2.74717 -5
2 930 -0.248146 -2.98972 -6
2 931 0.736031 -2.90831 -6
2 949 -0.248146 -2.98972 -5
2 950 0.736031 -2.90831 -5
2 927 -2.63857 -1.42756 -6
2 928 -2.0321 -2.20693 -6
2 946 -2.63857 -1.42756 -5
2 947 -2.0321 -2.20693 -5
2 932 1.64045 -2.51176 -6
2 933 2.36712 -1.84303 -6
2 951 1.64045 -2.51176 -5
2 952 2.36712 -1.84303 -5
2 934 2.83728 -0.974597 -6
2 953 2.83728 -0.974597 -5
2 925 -2.95904 0.494044 -6
2 926 -2.95913 -0.493495 -6
2 944 -2.95904 0.494044 -5
2 945 -2.95913 -0.493495 -5
2 935 3 -0.000555922 -6
2 954 3 -0.000555922 -5
2 923 -2.03169 2.20731 -6
2 924 -2.63831 1.42805 -6
2 942 -2.03169 2.20731 -5
2 943 -2.63831 1.42805 -5
2 918 2.36746 1.84259 -6
2 919 1.64092 2.51145 -6
2 937 2.36746 1.84259 -5
2 938 1.64092 2.51145 -5
2 917 2.83746 0.974071 -6
2 936 2.83746 0.974071 -5
2 922 -1.20493 2.74739 -6
2 941 -1.20493 2.74739 -5
2 920 0.73657 2.90817 -6
2 921 -0.247592 2.98977 -6
2 939 0.73657 2.90817 -5
2 940 -0.247592 2.98977 -5
2 967 -1.20543 -2.74717 -4
2 986 -1.20543 -2.74717 -3
2 968 -0.248146 -2.98972 -4
2 969 0.736031 -2.90831 -4
2 987 -0.248146 -2.98972 -3
2 988 0.736031 -2.90831 -3
2 965 -2.63857 -1.42756 -4
2 966 -2.0321 -2.20693 -4
2 984 -2.63857 -1.42756 -3
2 985 -2.0321 -2.20693 -3
2 970 1.64045 -2.51176 -4
2 971 2.36712 -1.84303 -4
2 989 1.64045 -2.51176 -3
2 990 2.36712 -1.84303 -3
2 972 2.83728 -0.974597 -4
2 991 2.83728 -0.974597 -3
2 963 -2.95904 0.494044 -4
2 964 -2.95913 -0.493495 -4
2 982 -2.95904 0.494044 -3
2 983 -2.95913 -0.493495 -3
2 973 3 -0.000555922 -4
2 992 3 -0.000555922 -3
2 961 -2.03169 2.20731 -4
2 962 -2.63831 1.42805 -4
2 980 -2.03169 2.20731 -3
2 981 -2.63831 1.42805 -3
2 956 2.36746 1.84259 -4
2 957 1.64092 2.51145 -4
2 975 2.36746 1.84259 -3
2 976 1.64092 2.51145 -3
2 955 2.83746 0.974071 -4
2 974 2.83746 0.974071 -3
2 960 -1.20493 2.74739 -4
2 979 -1.20493 2.74739 -3
2 958 0.73657 2.90817 -4
2 959 -0.247592 2.98977 -4
2 977 0.73657 2.90817 -3
2 978 -0.247592 2.98977 -3
2 1005 -1.20543 -2.74717 -2
2 1024 -1.20543 -2.74717 -1
2 1006 -0.248146 -2.98972 -2
2 1007 0.736031 -2.90831 -2
2 1025 -0.248146 -2.98972 -1
2 1026 0.736031 -2.90831 -1
1 61 -5.02787 -1.82941 -0.957158
2 1003 -2.63857 -1.42756 -2
2 1004 -2.0321 -2.20693 -2
2 1022 -2.63857 -1.42756 -1
2 1023 -2.0321 -2.20693 -1
2 1008 1.64045 -2.51176 -2
2 1009 2.36712 -1.84303 -2
2 1027 1.64045 -2.51176 -1
2 1028 2.36712 -1.84303 -1
2 1010 2.83728 -0.974597 -2
2 1029 2.83728 -0.974597 -1
2 1001 -2.95904 0.494044 -2
2 1002 -2.95913 -0.493495 -2
2 1020 -2.95904 0.494044 -1
2 1021 -2.95913 -0.493495 -1
2 1011 3 -0.000555922 -2
2 1030 3 -0.000555922 -1
2 999 -2.03169 2.20731 -2
2 1000 -2.63831 1.42805 -2
2 1018 -2.03169 2.20731 -1
2 1019 -2.63831 1.42805 -1
2 994 2.36746 1.84259 -2
2 995 1.64092 2.51145 -2
2 1013 2.36746 1.84259 -1
2 1014 1.64092 2.51145 -1
2 993 2.83746 0.974071 -2
2 1012 2.83746 0.974071 -1
2 998 -1.20493 2.74739 -2
2 1017 -1.20493 2.74739 -1
2 996 0.73657 2.90817 -2
2 997 -0.247592 2.98977 -2
2 1015 0.73657 2.90817 -1
2 1016 -0.247592 2.98977 -1
1 10 6.01891 3.47489 -0.955271
1 26 0.915977 7.83377 -0.881388
1 65 -4.14107 -2.72297 -0.228425
1 66 -3.90311 -2.90508 0.804348
1 67 -3.66117 -3.07138 -0.34613
1 68 -3.41634 -3.2224 -0.611913
1 69 -3.16955 -3.35875 -0.648425
1 70 -2.92166 -3.48107 -0.317396
1 71 -2.67337 -3.59006 0.364029
1 72 -2.42527 -3.68646 -0.0118263
1 73 -2.1778 -3.77099 -0.568829
1 74 -1.93131 -3.84435 -0.248517
1 75 -1.68601 -3.90724 0.055985
1 76 -1.44201 -3.96031 -0.301562
1 77 -1.19933 -4.00414 0.528027
1 78 -0.957883 -4.03925 0.220752
2 1043 -1.20543 -2.74717 0
1 79 -0.717522 -4.06609 0.47652
1 80 -0.47803 -4.085 -0.596936
2 1044 -0.248146 -2.98972 0
2 1045 0.736031 -2.90831 0
1 58 -5.5842 -0.984083 0.546904
1 59 -5.41222 -1.28215 -0.253526
1 60 -5.22624 -1.56406 -0.428295
1 62 -4.81868 -2.07798 -0.716046
1 63 -4.60019 -2.30969 0.664595
1 64 -4.37386 -2.52462 -0.393429
2 1041 -2.63857 -1.42756 0
2 1042 -2.0321 -2.20693 0
2 1046 1.64045 -2.51176 0
2 1047 2.36712 -1.84303 0
2 1048 2.83728 -0.974597 0
1 53 -6.17862 0.722736 -0.111947
1 54 -6.10028 0.355857 0.65023
1 55 -6.00018 0.000555938 0.19117
1 56 -5.87977 -0.341901 -0.088372
1 57 -5.74059 -0.67042 0.862604
2 1039 -2.95904 0.494044 0
2 1040 -2.95913 -0.493495 0
2 1049 3 -0.000555922 0
1 2 6.10013 0.355282 -0.0717076
1 3 6.17851 0.722143 -0.0629778
1 49 -6.24875 2.27494 0.205573
1 50 -6.26996 1.87768 -0.395057
1 51 -6.26466 1.48532 -0.359713
1 52 -6.23383 1.09976 -0.0922737
2 1037 -2.03169 2.20731 0
2 1038 -2.63831 1.42805 0
2 1032 2.36746 1.84259 0
2 1033 1.64092 2.51145 0
2 1031 2.83746 0.974071 0
1 4 6.23376 1.09915 0.0307284
1 5 6.26463 1.4847 0.259797
1 6 6.26997 1.87705 -0.0348432
1 7 6.24881 2.27431 -0.0153736
1 45 -5.88504 3.87129 -0.762589
1 46 -6.01872 3.47553 0.384527
1 47 -6.12369 3.07604 0.272497
1 48 -6.20022 2.6751 -0.353784
2 1036 -1.20493 2.74739 0
2 1034 0.73657 2.90817 0
2 1035 -0.247592 2.98977 0
1 8 6.20031 2.67447 -0.837081
1 9 6.12383 3.0754 0.494996
1 11 5.88528 3.87066 0.0514697
1 12 5.72289 4.26036 -0.100827
1 39 -4.49269 6.03555 0.203044
1 40 -4.79196 5.71162 0.482214
1 41 -5.06554 5.36989 -0.0145083
1 42 -5.31235 5.01265 -0.640086
1 43 -5.53158 4.64223 0.470128
1 13 5.53191 4.64163 -0.0799878
1 14 5.31272 5.01207 -0.589197
1 15 5.06595 5.36933 -0.377146
1 16 4.79242 5.71109 0.614466
1 17 4.49319 6.03505 0.658247
1 35 -3.06709 7.11145 -0.15525
1 36 -3.45442 6.87935 -0.128019
1 37 -3.82234 6.62144 0.449381
1 38 -4.16899 6.33952 -0.384462
1 30 -0.915254 7.83388 -0.0755936
1 31 -1.36641 7.75164 0.673984
1 32 -1.80965 7.63734 0.832931
1 33 -2.24245 7.4918 0.495494
1 34 -2.66237 7.31608 0.0564417
1 27 0.459509 7.8834 -0.218347
1 28 0.000365982 7.9 -0.815824
1 29 -0.458779 7.88345 0.217407
1 22 2.66302 7.31578 0.609796
1 24 1.81035 7.63713 0.494368
1 25 1.36713 7.75148 0.4468
1 19 3.82291 6.62101 -0.0358324
1 20 3.45502 6.87896 -0.453413
1 21 3.06772 7.1111 -0.656768
2 1062 -1.20543 -2.74717 1
2 1081 -1.20543 -2.74717 2
2 1063 -0.248146 -2.98972 1
2 1064 0.736031 -2.90831 1
2 1082 -0.248146 -2.98972 2
2 1083 0.736031 -2.90831 2
2 1060 -2.63857 -1.42756 1
2 1061 -2.0321 -2.20693 1
2 1079 -2.63857 -1.42756 2
2 1080 -2.0321 -2.20693 2
2 1065 1.64045 -2.51176 1
2 1066 2.36712 -1.84303 1
2 1084 1.64045 -2.51176 2
2 1085 2.36712 -1.84303 2
2 1067 2.83728 -0.974597 1
2 1086 2.83728 -0.974597 2
2 1058 -2.95904 0.494044 1
2 1059 -2.95913 -0.493495 1
2 1077 -2.95904 0.494044 2
2 1078 -2.95913 -0.493495 2
2 1068 3 -0.000555922 1