#active polymer absorption in cylinder surface

     1999  atoms
       79  bonds
       78  angles
        0  dihedrals
        0  impropers

        2  atom types
        1  bond types
        1  angle types
        0  dihedral types
        0  improper types

-40.0 40.0 xlo xhi
-40.0 40.0 ylo yhi
-50.0 50.0 zlo zhi

Masses

1 1
2 1

Atoms

1	1	1	6	0	0.990403
2	1	1	6.10013	0.355282	-0.0717076
3	1	1	6.17851	0.722143	-0.0629778
4	1	1	6.23376	1.09915	0.0307284
5	1	1	6.26463	1.4847	0.259797
6	1	1	6.26997	1.87705	-0.0348432
7	1	1	6.24881	2.27431	-0.0153736
8	1	1	6.20031	2.67447	-0.837081
9	1	1	6.12383	3.0754	0.494996
10	1	1	6.01891	3.47489	-0.955271
11	1	1	5.88528	3.87066	0.0514697
12	1	1	5.72289	4.26036	-0.100827
13	1	1	5.53191	4.64163	-0.0799878
14	1	1	5.31272	5.01207	-0.589197
15	1	1	5.06595	5.36933	-0.377146
16	1	1	4.79242	5.71109	0.614466
17	1	1	4.49319	6.03505	0.658247
18	1	1	4.16953	6.33906	0.945315
19	1	1	3.82291	6.62101	-0.0358324
20	1	1	3.45502	6.87896	-0.453413
21	1	1	3.06772	7.1111	-0.656768
22	1	1	2.66302	7.31578	0.609796
23	1	1	2.24313	7.49155	0.978883
24	1	1	1.81035	7.63713	0.494368
25	1	1	1.36713	7.75148	0.4468
26	1	1	0.915977	7.83377	-0.881388
27	1	1	0.459509	7.8834	-0.218347
28	1	1	0.000365982	7.9	-0.815824
29	1	1	-0.458779	7.88345	0.217407
30	1	1	-0.915254	7.83388	-0.0755936
31	1	1	-1.36641	7.75164	0.673984
32	1	1	-1.80965	7.63734	0.832931
33	1	1	-2.24245	7.4918	0.495494
34	1	1	-2.66237	7.31608	0.0564417
35	1	1	-3.06709	7.11145	-0.15525
36	1	1	-3.45442	6.87935	-0.128019
37	1	1	-3.82234	6.62144	0.449381
38	1	1	-4.16899	6.33952	-0.384462
39	1	1	-4.49269	6.03555	0.203044
40	1	1	-4.79196	5.71162	0.482214
41	1	1	-5.06554	5.36989	-0.0145083
42	1	1	-5.31235	5.01265	-0.640086
43	1	1	-5.53158	4.64223	0.470128
44	1	1	-5.72261	4.26098	0.962331
45	1	1	-5.88504	3.87129	-0.762589
46	1	1	-6.01872	3.47553	0.384527
47	1	1	-6.12369	3.07604	0.272497
48	1	1	-6.20022	2.6751	-0.353784
49	1	1	-6.24875	2.27494	0.205573
50	1	1	-6.26996	1.87768	-0.395057
51	1	1	-6.26466	1.48532	-0.359713
52	1	1	-6.23383	1.09976	-0.0922737
53	1	1	-6.17862	0.722736	-0.111947
54	1	1	-6.10028	0.355857	0.65023
55	1	1	-6.00018	0.000555938	0.19117
56	1	1	-5.87977	-0.341901	-0.088372
57	1	1	-5.74059	-0.67042	0.862604
58	1	1	-5.5842	-0.984083	0.546904
59	1	1	-5.41222	-1.28215	-0.253526
60	1	1	-5.22624	-1.56406	-0.428295
61	1	1	-5.02787	-1.82941	-0.957158
62	1	1	-4.81868	-2.07798	-0.716046
63	1	1	-4.60019	-2.30969	0.664595
64	1	1	-4.37386	-2.52462	-0.393429
65	1	1	-4.14107	-2.72297	-0.228425
66	1	1	-3.90311	-2.90508	0.804348
67	1	1	-3.66117	-3.07138	-0.34613
68	1	1	-3.41634	-3.2224	-0.611913
69	1	1	-3.16955	-3.35875	-0.648425
70	1	1	-2.92166	-3.48107	-0.317396
71	1	1	-2.67337	-3.59006	0.364029
72	1	1	-2.42527	-3.68646	-0.0118263
73	1	1	-2.1778	-3.77099	-0.568829
74	1	1	-1.93131	-3.84435	-0.248517
75	1	1	-1.68601	-3.90724	0.055985
76	1	1	-1.44201	-3.96031	-0.301562
77	1	1	-1.19933	-4.00414	0.528027
78	1	1	-0.957883	-4.03925	0.220752
79	1	1	-0.717522	-4.06609	0.47652
80	1	1	-0.47803	-4.085	-0.596936
81		2		2		2.83746		0.974071		-50
82		2		2		2.36746		1.84259		-50
83		2		2		1.64092		2.51145		-50
84		2		2		0.73657		2.90817		-50
85		2		2		-0.247592		2.98977		-50
86		2		2		-1.20493		2.74739		-50
87		2		2		-2.03169		2.20731		-50
88		2		2		-2.63831		1.42805		-50
89		2		2		-2.95904		0.494044		-50
90		2		2		-2.95913		-0.493495		-50
91		2		2		-2.63857		-1.42756		-50
92		2		2		-2.0321		-2.20693		-50
93		2		2		-1.20543		-2.74717		-50
94		2		2		-0.248146		-2.98972		-50
95		2		2		0.736031		-2.90831		-50
96		2		2		1.64045		-2.51176		-50
97		2		2		2.36712		-1.84303		-50
98		2		2		2.83728		-0.974597		-50
99		2		2		3		-0.000555922		-50
100		2		2		2.83746		0.974071		-49
101		2		2		2.36746		1.84259		-49
102		2		2		1.64092		2.51145		-49
103		2		2		0.73657		2.90817		-49
104		2		2		-0.247592		2.98977		-49
105		2		2		-1.20493		2.74739		-49
106		2		2		-2.03169		2.20731		-49
107		2		2		-2.63831		1.42805		-49
108		2		2		-2.95904		0.494044		-49
109		2		2		-2.95913		-0.493495		-49
110		2		2		-2.63857		-1.42756		-49
111		2		2		-2.0321		-2.20693		-49
112		2		2		-1.20543		-2.74717		-49
113		2		2		-0.248146		-2.98972		-49
114		2		2		0.736031		-2.90831		-49
115		2		2		1.64045		-2.51176		-49
116		2		2		2.36712		-1.84303		-49
117		2		2		2.83728		-0.974597		-49
118		2		2		3		-0.000555922		-49
119		2		2		2.83746		0.974071		-48
120		2		2		2.36746		1.84259		-48
121		2		2		1.64092		2.51145		-48
122		2		2		0.73657		2.90817		-48
123		2		2		-0.247592		2.98977		-48
124		2		2		-1.20493		2.74739		-48
125		2		2		-2.03169		2.20731		-48
126		2		2		-2.63831		1.42805		-48
127		2		2		-2.95904		0.494044		-48
128		2		2		-2.95913		-0.493495		-48
129		2		2		-2.63857		-1.42756		-48
130		2		2		-2.0321		-2.20693		-48
131		2		2		-1.20543		-2.74717		-48
132		2		2		-0.248146		-2.98972		-48
133		2		2		0.736031		-2.90831		-48
134		2		2		1.64045		-2.51176		-48
135		2		2		2.36712		-1.84303		-48
136		2		2		2.83728		-0.974597		-48
137		2		2		3		-0.000555922		-48
138		2		2		2.83746		0.974071		-47
139		2		2		2.36746		1.84259		-47
140		2		2		1.64092		2.51145		-47
141		2		2		0.73657		2.90817		-47
142		2		2		-0.247592		2.98977		-47
143		2		2		-1.20493		2.74739		-47
144		2		2		-2.03169		2.20731		-47
145		2		2		-2.63831		1.42805		-47
146		2		2		-2.95904		0.494044		-47
147		2		2		-2.95913		-0.493495		-47
148		2		2		-2.63857		-1.42756		-47
149		2		2		-2.0321		-2.20693		-47
150		2		2		-1.20543		-2.74717		-47
151		2		2		-0.248146		-2.98972		-47
152		2		2		0.736031		-2.90831		-47
153		2		2		1.64045		-2.51176		-47
154		2		2		2.36712		-1.84303		-47
155		2		2		2.83728		-0.974597		-47
156		2		2		3		-0.000555922		-47
157		2		2		2.83746		0.974071		-46
158		2		2		2.36746		1.84259		-46
159		2		2		1.64092		2.51145		-46
160		2		2		0.73657		2.90817		-46
161		2		2		-0.247592		2.98977		-46
162		2		2		-1.20493		2.74739		-46
163		2		2		-2.03169		2.20731		-46
164		2		2		-2.63831		1.42805		-46
165		2		2		-2.95904		0.494044		-46
166		2		2		-2.95913		-0.493495		-46
167		2		2		-2.63857		-1.42756		-46
168		2		2		-2.0321		-2.20693		-46
169		2		2		-1.20543		-2.74717		-46
170		2		2		-0.248146		-2.98972		-46
171		2		2		0.736031		-2.90831		-46
172		2		2		1.64045		-2.51176		-46
173		2		2		2.36712		-1.84303		-46
174		2		2		2.83728		-0.974597		-46
175		2		2		3		-0.000555922		-46
176		2		2		2.83746		0.974071		-45
177		2		2		2.36746		1.84259		-45
178		2		2		1.64092		2.51145		-45
179		2		2		0.73657		2.90817		-45
180		2		2		-0.247592		2.98977		-45
181		2		2		-1.20493		2.74739		-45
182		2		2		-2.03169		2.20731		-45
183		2		2		-2.63831		1.42805		-45
184		2		2		-2.95904		0.494044		-45
185		2		2		-2.95913		-0.493495		-45
186		2		2		-2.63857		-1.42756		-45
187		2		2		-2.0321		-2.20693		-45
188		2		2		-1.20543		-2.74717		-45
189		2		2		-0.248146		-2.98972		-45
190		2		2		0.736031		-2.90831		-45
191		2		2		1.64045		-2.51176		-45
192		2		2		2.36712		-1.84303		-45
193		2		2		2.83728		-0.974597		-45
194		2		2		3		-0.000555922		-45
195		2		2		2.83746		0.974071		-44
196		2		2		2.36746		1.84259		-44
197		2		2		1.64092		2.51145		-44
198		2		2		0.73657		2.90817		-44
199		2		2		-0.247592		2.98977		-44
200		2		2		-1.20493		2.74739		-44
201		2		2		-2.03169		2.20731		-44
202		2		2		-2.63831		1.42805		-44
203		2		2		-2.95904		0.494044		-44
204		2		2		-2.95913		-0.493495		-44
205		2		2		-2.63857		-1.42756		-44
206		2		2		-2.0321		-2.20693		-44
207		2		2		-1.20543		-2.74717		-44
208		2		2		-0.248146		-2.98972		-44
209		2		2		0.736031		-2.90831		-44
210		2		2		1.64045		-2.51176		-44
211		2		2		2.36712		-1.84303		-44
212		2		2		2.83728		-0.974597		-44
213		2		2		3		-0.000555922		-44
214		2		2		2.83746		0.974071		-43
215		2		2		2.36746		1.84259		-43
216		2		2		1.64092		2.51145		-43
217		2		2		0.73657		2.90817		-43
218		2		2		-0.247592		2.98977		-43
219		2		2		-1.20493		2.74739		-43
220		2		2		-2.03169		2.20731		-43
221		2		2		-2.63831		1.42805		-43
222		2		2		-2.95904		0.494044		-43
223		2		2		-2.95913		-0.493495		-43
224		2		2		-2.63857		-1.42756		-43
225		2		2		-2.0321		-2.20693		-43
226		2		2		-1.20543		-2.74717		-43
227		2		2		-0.248146		-2.98972		-43
228		2		2		0.736031		-2.90831		-43
229		2		2		1.64045		-2.51176		-43
230		2		2		2.36712		-1.84303		-43
231		2		2		2.83728		-0.974597		-43
232		2		2		3		-0.000555922		-43
233		2		2		2.83746		0.974071		-42
234		2		2		2.36746		1.84259		-42
235		2		2		1.64092		2.51145		-42
236		2		2		0.73657		2.90817		-42
237		2		2		-0.247592		2.98977		-42
238		2		2		-1.20493		2.74739		-42
239		2		2		-2.03169		2.20731		-42
240		2		2		-2.63831		1.42805		-42
241		2		2		-2.95904		0.494044		-42
242		2		2		-2.95913		-0.493495		-42
243		2		2		-2.63857		-1.42756		-42
244		2		2		-2.0321		-2.20693		-42
245		2		2		-1.20543		-2.74717		-42
246		2		2		-0.248146		-2.98972		-42
247		2		2		0.736031		-2.90831		-42
248		2		2		1.64045		-2.51176		-42
249		2		2		2.36712		-1.84303		-42
250		2		2		2.83728		-0.974597		-42
251		2		2		3		-0.000555922		-42
252		2		2		2.83746		0.974071		-41
253		2		2		2.36746		1.84259		-41
254		2		2		1.64092		2.51145		-41
255		2		2		0.73657		2.90817		-41
256		2		2		-0.247592		2.98977		-41
257		2		2		-1.20493		2.74739		-41
258		2		2		-2.03169		2.20731		-41
259		2		2		-2.63831		1.42805		-41
260		2		2		-2.95904		0.494044		-41
261		2		2		-2.95913		-0.493495		-41
262		2		2		-2.63857		-1.42756		-41
263		2		2		-2.0321		-2.20693		-41
264		2		2		-1.20543		-2.74717		-41
265		2		2		-0.248146		-2.98972		-41
266		2		2		0.736031		-2.90831		-41
267		2		2		1.64045		-2.51176		-41
268		2		2		2.36712		-1.84303		-41
269		2		2		2.83728		-0.974597		-41
270		2		2		3		-0.000555922		-41
271		2		2		2.83746		0.974071		-40
272		2		2		2.36746		1.84259		-40
273		2		2		1.64092		2.51145		-40
274		2		2		0.73657		2.90817		-40
275		2		2		-0.247592		2.98977		-40
276		2		2		-1.20493		2.74739		-40
277		2		2		-2.03169		2.20731		-40
278		2		2		-2.63831		1.42805		-40
279		2		2		-2.95904		0.494044		-40
280		2		2		-2.95913		-0.493495		-40
281		2		2		-2.63857		-1.42756		-40
282		2		2		-2.0321		-2.20693		-40
283		2		2		-1.20543		-2.74717		-40
284		2		2		-0.248146		-2.98972		-40
285		2		2		0.736031		-2.90831		-40
286		2		2		1.64045		-2.51176		-40
287		2		2		2.36712		-1.84303		-40
288		2		2		2.83728		-0.974597		-40
289		2		2		3		-0.000555922		-40
290		2		2		2.83746		0.974071		-39
291		2		2		2.36746		1.84259		-39
292		2		2		1.64092		2.51145		-39
293		2		2		0.73657		2.90817		-39
294		2		2		-0.247592		2.98977		-39
295		2		2		-1.20493		2.74739		-39
296		2		2		-2.03169		2.20731		-39
297		2		2		-2.63831		1.42805		-39
298		2		2		-2.95904		0.494044		-39
299		2		2		-2.95913		-0.493495		-39
300		2		2		-2.63857		-1.42756		-39
301		2		2		-2.0321		-2.20693		-39
302		2		2		-1.20543		-2.74717		-39
303		2		2		-0.248146		-2.98972		-39
304		2		2		0.736031		-2.90831		-39
305		2		2		1.64045		-2.51176		-39
306		2		2		2.36712		-1.84303		-39
307		2		2		2.83728		-0.974597		-39
308		2		2		3		-0.000555922		-39
309		2		2		2.83746		0.974071		-38
310		2		2		2.36746		1.84259		-38
311		2		2		1.64092		2.51145		-38
312		2		2		0.73657		2.90817		-38
313		2		2		-0.247592		2.98977		-38
314		2		2		-1.20493		2.74739		-38
315		2		2		-2.03169		2.20731		-38
316		2		2		-2.63831		1.42805		-38
317		2		2		-2.95904		0.494044		-38
318		2		2		-2.95913		-0.493495		-38
319		2		2		-2.63857		-1.42756		-38
320		2		2		-2.0321		-2.20693		-38
321		2		2		-1.20543		-2.74717		-38
322		2		2		-0.248146		-2.98972		-38
323		2		2		0.736031		-2.90831		-38
324		2		2		1.64045		-2.51176		-38
325		2		2		2.36712		-1.84303		-38
326		2		2		2.83728		-0.974597		-38
327		2		2		3		-0.000555922		-38
328		2		2		2.83746		0.974071		-37
329		2		2		2.36746		1.84259		-37
330		2		2		1.64092		2.51145		-37
331		2		2		0.73657		2.90817		-37
332		2		2		-0.247592		2.98977		-37
333		2		2		-1.20493		2.74739		-37
334		2		2		-2.03169		2.20731		-37
335		2		2		-2.63831		1.42805		-37
336		2		2		-2.95904		0.494044		-37
337		2		2		-2.95913		-0.493495		-37
338		2		2		-2.63857		-1.42756		-37
339		2		2		-2.0321		-2.20693		-37
340		2		2		-1.20543		-2.74717		-37
341		2		2		-0.248146		-2.98972		-37
342		2		2		0.736031		-2.90831		-37
343		2		2		1.64045		-2.51176		-37
344		2		2		2.36712		-1.84303		-37
345		2		2		2.83728		-0.974597		-37
346		2		2		3		-0.000555922		-37
347		2		2		2.83746		0.974071		-36
348		2		2		2.36746		1.84259		-36
349		2		2		1.64092		2.51145		-36
350		2		2		0.73657		2.90817		-36
351		2		2		-0.247592		2.98977		-36
352		2		2		-1.20493		2.74739		-36
353		2		2		-2.03169		2.20731		-36
354		2		2		-2.63831		1.42805		-36
355		2		2		-2.95904		0.494044		-36
356		2		2		-2.95913		-0.493495		-36
357		2		2		-2.63857		-1.42756		-36
358		2		2		-2.0321		-2.20693		-36
359		2		2		-1.20543		-2.74717		-36
360		2		2		-0.248146		-2.98972		-36
361		2		2		0.736031		-2.90831		-36
362		2		2		1.64045		-2.51176		-36
363		2		2		2.36712		-1.84303		-36
364		2		2		2.83728		-0.974597		-36
365		2		2		3		-0.000555922		-36
366		2		2		2.83746		0.974071		-35
367		2		2		2.36746		1.84259		-35
368		2		2		1.64092		2.51145		-35
369		2		2		0.73657		2.90817		-35
370		2		2		-0.247592		2.98977		-35
371		2		2		-1.20493		2.74739		-35
372		2		2		-2.03169		2.20731		-35
373		2		2		-2.63831		1.42805		-35
374		2		2		-2.95904		0.494044		-35
375		2		2		-2.95913		-0.493495		-35
376		2		2		-2.63857		-1.42756		-35
377		2		2		-2.0321		-2.20693		-35
378		2		2		-1.20543		-2.74717		-35
379		2		2		-0.248146		-2.98972		-35
380		2		2		0.736031		-2.90831		-35
381		2		2		1.64045		-2.51176		-35
382		2		2		2.36712		-1.84303		-35
383		2		2		2.83728		-0.974597		-35
384		2		2		3		-0.000555922		-35
385		2		2		2.83746		0.974071		-34
386		2		2		2.36746		1.84259		-34
387		2		2		1.64092		2.51145		-34
388		2		2		0.73657		2.90817		-34
389		2		2		-0.247592		2.98977		-34
390		2		2		-1.20493		2.74739		-34
391		2		2		-2.03169		2.20731		-34
392		2		2		-2.63831		1.42805		-34
393		2		2		-2.95904		0.494044		-34
394		2		2		-2.95913		-0.493495		-34
395		2		2		-2.63857		-1.42756		-34
396		2		2		-2.0321		-2.20693		-34
397		2		2		-1.20543		-2.74717		-34
398		2		2		-0.248146		-2.98972		-34
399		2		2		0.736031		-2.90831		-34
400		2		2		1.64045		-2.51176		-34
401		2		2		2.36712		-1.84303		-34
402		2		2		2.83728		-0.974597		-34
403		2		2		3		-0.000555922		-34
404		2		2		2.83746		0.974071		-33
405		2		2		2.36746		1.84259		-33
406		2		2		1.64092		2.51145		-33
407		2		2		0.73657		2.90817		-33
408		2		2		-0.247592		2.98977		-33
409		2		2		-1.20493		2.74739		-33
410		2		2		-2.03169		2.20731		-33
411		2		2		-2.63831		1.42805		-33
412		2		2		-2.95904		0.494044		-33
413		2		2		-2.95913		-0.493495		-33
414		2		2		-2.63857		-1.42756		-33
415		2		2		-2.0321		-2.20693		-33
416		2		2		-1.20543		-2.74717		-33
417		2		2		-0.248146		-2.98972		-33
418		2		2		0.736031		-2.90831		-33
419		2		2		1.64045		-2.51176		-33
420		2		2		2.36712		-1.84303		-33
421		2		2		2.83728		-0.974597		-33
422		2		2		3		-0.000555922		-33
423		2		2		2.83746		0.974071		-32
424		2		2		2.36746		1.84259		-32
425		2		2		1.64092		2.51145		-32
426		2		2		0.73657		2.90817		-32
427		2		2		-0.247592		2.98977		-32
428		2		2		-1.20493		2.74739		-32
429		2		2		-2.03169		2.20731		-32
430		2		2		-2.63831		1.42805		-32
431		2		2		-2.95904		0.494044		-32
432		2		2		-2.95913		-0.493495		-32
433		2		2		-2.63857		-1.42756		-32
434		2		2		-2.0321		-2.20693		-32
435		2		2		-1.20543		-2.74717		-32
436		2		2		-0.248146		-2.98972		-32
437		2		2		0.736031		-2.90831		-32
438		2		2		1.64045		-2.51176		-32
439		2		2		2.36712		-1.84303		-32
440		2		2		2.83728		-0.974597		-32
441		2		2		3		-0.000555922		-32
442		2		2		2.83746		0.974071		-31
443		2		2		2.36746		1.84259		-31
444		2		2		1.64092		2.51145		-31
445		2		2		0.73657		2.90817		-31
446		2		2		-0.247592		2.98977		-31
447		2		2		-1.20493		2.74739		-31
448		2		2		-2.03169		2.20731		-31
449		2		2		-2.63831		1.42805		-31
450		2		2		-2.95904		0.494044		-31
451		2		2		-2.95913		-0.493495		-31
452		2		2		-2.63857		-1.42756		-31
453		2		2		-2.0321		-2.20693		-31
454		2		2		-1.20543		-2.74717		-31
455		2		2		-0.248146		-2.98972		-31
456		2		2		0.736031		-2.90831		-31
457		2		2		1.64045		-2.51176		-31
458		2		2		2.36712		-1.84303		-31
459		2		2		2.83728		-0.974597		-31
460		2		2		3		-0.000555922		-31
461		2		2		2.83746		0.974071		-30
462		2		2		2.36746		1.84259		-30
463		2		2		1.64092		2.51145		-30
464		2		2		0.73657		2.90817		-30
465		2		2		-0.247592		2.98977		-30
466		2		2		-1.20493		2.74739		-30
467		2		2		-2.03169		2.20731		-30
468		2		2		-2.63831		1.42805		-30
469		2		2		-2.95904		0.494044		-30
470		2		2		-2.95913		-0.493495		-30
471		2		2		-2.63857		-1.42756		-30
472		2		2		-2.0321		-2.20693		-30
473		2		2		-1.20543		-2.74717		-30
474		2		2		-0.248146		-2.98972		-30
475		2		2		0.736031		-2.90831		-30
476		2		2		1.64045		-2.51176		-30
477		2		2		2.36712		-1.84303		-30
478		2		2		2.83728		-0.974597		-30
479		2		2		3		-0.000555922		-30
480		2		2		2.83746		0.974071		-29
481		2		2		2.36746		1.84259		-29
482		2		2		1.64092		2.51145		-29
483		2		2		0.73657		2.90817		-29
484		2		2		-0.247592		2.98977		-29
485		2		2		-1.20493		2.74739		-29
486		2		2		-2.03169		2.20731		-29
487		2		2		-2.63831		1.42805		-29
488		2		2		-2.95904		0.494044		-29
489		2		2		-2.95913		-0.493495		-29
490		2		2		-2.63857		-1.42756		-29
491		2		2		-2.0321		-2.20693		-29
492		2		2		-1.20543		-2.74717		-29
493		2		2		-0.248146		-2.98972		-29
494		2		2		0.736031		-2.90831		-29
495		2		2		1.64045		-2.51176		-29
496		2		2		2.36712		-1.84303		-29
497		2		2		2.83728		-0.974597		-29
498		2		2		3		-0.000555922		-29
499		2		2		2.83746		0.974071		-28
500		2		2		2.36746		1.84259		-28
501		2		2		1.64092		2.51145		-28
502		2		2		0.73657		2.90817		-28
503		2		2		-0.247592		2.98977		-28
504		2		2		-1.20493		2.74739		-28
505		2		2		-2.03169		2.20731		-28
506		2		2		-2.63831		1.42805		-28
507		2		2		-2.95904		0.494044		-28
508		2		2		-2.95913		-0.493495		-28
509		2		2		-2.63857		-1.42756		-28
510		2		2		-2.0321		-2.20693		-28
511		2		2		-1.20543		-2.74717		-28
512		2		2		-0.248146		-2.98972		-28
513		2		2		0.736031		-2.90831		-28
514		2		2		1.64045		-2.51176		-28
515		2		2		2.36712		-1.84303		-28
516		2		2		2.83728		-0.974597		-28
517		2		2		3		-0.000555922		-28
518		2		2		2.83746		0.974071		-27
519		2		2		2.36746		1.84259		-27
520		2		2		1.64092		2.51145		-27
521		2		2		0.73657		2.90817		-27
522		2		2		-0.247592		2.98977		-27
523		2		2		-1.20493		2.74739		-27
524		2		2		-2.03169		2.20731		-27
525		2		2		-2.63831		1.42805		-27
526		2		2		-2.95904		0.494044		-27
527		2		2		-2.95913		-0.493495		-27
528		2		2		-2.63857		-1.42756		-27
529		2		2		-2.0321		-2.20693		-27
530		2		2		-1.20543		-2.74717		-27
531		2		2		-0.248146		-2.98972		-27
532		2		2		0.736031		-2.90831		-27
533		2		2		1.64045		-2.51176		-27
534		2		2		2.36712		-1.84303		-27
535		2		2		2.83728		-0.974597		-27
536		2		2		3		-0.000555922		-27
537		2		2		2.83746		0.974071		-26
538		2		2		2.36746		1.84259		-26
539		2		2		1.64092		2.51145		-26
540		2		2		0.73657		2.90817		-26
541		2		2		-0.247592		2.98977		-26
542		2		2		-1.20493		2.74739		-26
543		2		2		-2.03169		2.20731		-26
544		2		2		-2.63831		1.42805		-26
545		2		2		-2.95904		0.494044		-26
546		2		2		-2.95913		-0.493495		-26
547		2		2		-2.63857		-1.42756		-26
548		2		2		-2.0321		-2.20693		-26
549		2		2		-1.20543		-2.74717		-26
550		2		2		-0.248146		-2.98972		-26
551		2		2		0.736031		-2.90831		-26
552		2		2		1.64045		-2.51176		-26
553		2		2		2.36712		-1.84303		-26
554		2		2		2.83728		-0.974597		-26
555		2		2		3		-0.000555922		-26
556		2		2		2.83746		0.974071		-25
557		2		2		2.36746		1.84259		-25
558		2		2		1.64092		2.51145		-25
559		2		2		0.73657		2.90817		-25
560		2		2		-0.247592		2.98977		-25
561		2		2		-1.20493		2.74739		-25
562		2		2		-2.03169		2.20731		-25
563		2		2		-2.63831		1.42805		-25
564		2		2		-2.95904		0.494044		-25
565		2		2		-2.95913		-0.493495		-25
566		2		2		-2.63857		-1.42756		-25
567		2		2		-2.0321		-2.20693		-25
568		2		2		-1.20543		-2.74717		-25
569		2		2		-0.248146		-2.98972		-25
570		2		2		0.736031		-2.90831		-25
571		2		2		1.64045		-2.51176		-25
572		2		2		2.36712		-1.84303		-25
573		2		2		2.83728		-0.974597		-25
574		2		2		3		-0.000555922		-25
575		2		2		2.83746		0.974071		-24
576		2		2		2.36746		1.84259		-24
577		2		2		1.64092		2.51145		-24
578		2		2		0.73657		2.90817		-24
579		2		2		-0.247592		2.98977		-24
580		2		2		-1.20493		2.74739		-24
581		2		2		-2.03169		2.20731		-24
582		2		2		-2.63831		1.42805		-24
583		2		2		-2.95904		0.494044		-24
584		2		2		-2.95913		-0.493495		-24
585		2		2		-2.63857		-1.42756		-24
586		2		2		-2.0321		-2.20693		-24
587		2		2		-1.20543		-2.74717		-24
588		2		2		-0.248146		-2.98972		-24
589		2		2		0.736031		-2.90831		-24
590		2		2		1.64045		-2.51176		-24
591		2		2		2.36712		-1.84303		-24
592		2		2		2.83728		-0.974597		-24
593		2		2		3		-0.000555922		-24
594		2		2		2.83746		0.974071		-23
595		2		2		2.36746		1.84259		-23
596		2		2		1.64092		2.51145		-23
597		2		2		0.73657		2.90817		-23
598		2		2		-0.247592		2.98977		-23
599		2		2		-1.20493		2.74739		-23
600		2		2		-2.03169		2.20731		-23
601		2		2		-2.63831		1.42805		-23
602		2		2		-2.95904		0.494044		-23
603		2		2		-2.95913		-0.493495		-23
604		2		2		-2.63857		-1.42756		-23
605		2		2		-2.0321		-2.20693		-23
606		2		2		-1.20543		-2.74717		-23
607		2		2		-0.248146		-2.98972		-23
608		2		2		0.736031		-2.90831		-23
609		2		2		1.64045		-2.51176		-23
610		2		2		2.36712		-1.84303		-23
611		2		2		2.83728		-0.974597		-23
612		2		2		3		-0.000555922		-23
613		2		2		2.83746		0.974071		-22
614		2		2		2.36746		1.84259		-22
615		2		2		1.64092		2.51145		-22
616		2		2		0.73657		2.90817		-22
617		2		2		-0.247592		2.98977		-22
618		2		2		-1.20493		2.74739		-22
619		2		2		-2.03169		2.20731		-22
620		2		2		-2.63831		1.42805		-22
621		2		2		-2.95904		0.494044		-22
622		2		2		-2.95913		-0.493495		-22
623		2		2		-2.63857		-1.42756		-22
624		2		2		-2.0321		-2.20693		-22
625		2		2		-1.20543		-2.74717		-22
626		2		2		-0.248146		-2.98972		-22
627		2		2		0.736031		-2.90831		-22
628		2		2		1.64045		-2.51176		-22
629		2		2		2.36712		-1.84303		-22
630		2		2		2.83728		-0.974597		-22
631		2		2		3		-0.000555922		-22
632		2		2		2.83746		0.974071		-21
633		2		2		2.36746		1.84259		-21
634		2		2		1.64092		2.51145		-21
635		2		2		0.73657		2.90817		-21
636		2		2		-0.247592		2.98977		-21
637		2		2		-1.20493		2.74739		-21
638		2		2		-2.03169		2.20731		-21
639		2		2		-2.63831		1.42805		-21
640		2		2		-2.95904		0.494044		-21
641		2		2		-2.95913		-0.493495		-21
642		2		2		-2.63857		-1.42756		-21
643		2		2		-2.0321		-2.20693		-21
644		2		2		-1.20543		-2.74717		-21
645		2		2		-0.248146		-2.98972		-21
646		2		2		0.736031		-2.90831		-21
647		2		2		1.64045		-2.51176		-21
648		2		2		2.36712		-1.84303		-21
649		2		2		2.83728		-0.974597		-21
650		2		2		3		-0.000555922		-21
651		2		2		2.83746		0.974071		-20
652		2		2		2.36746		1.84259		-20
653		2		2		1.64092		2.51145		-20
654		2		2		0.73657		2.90817		-20
655		2		2		-0.247592		2.98977		-20
656		2		2		-1.20493		2.74739		-20
657		2		2		-2.03169		2.20731		-20
658		2		2		-2.63831		1.42805		-20
659		2		2		-2.95904		0.494044		-20
660		2		2		-2.95913		-0.493495		-20
661		2		2		-2.63857		-1.42756		-20
662		2		2		-2.0321		-2.20693		-20
663		2		2		-1.20543		-2.74717		-20
664		2		2		-0.248146		-2.98972		-20
665		2		2		0.736031		-2.90831		-20
666		2		2		1.64045		-2.51176		-20
667		2		2		2.36712		-1.84303		-20
668		2		2		2.83728		-0.974597		-20
669		2		2		3		-0.000555922		-20
670		2		2		2.83746		0.974071		-19
671		2		2		2.36746		1.84259		-19
672		2		2		1.64092		2.51145		-19
673		2		2		0.73657		2.90817		-19
674		2		2		-0.247592		2.98977		-19
675		2		2		-1.20493		2.74739		-19
676		2		2		-2.03169		2.20731		-19
677		2		2		-2.63831		1.42805		-19
678		2		2		-2.95904		0.494044		-19
679		2		2		-2.95913		-0.493495		-19
680		2		2		-2.63857		-1.42756		-19
681		2		2		-2.0321		-2.20693		-19
682		2		2		-1.20543		-2.74717		-19
683		2		2		-0.248146		-2.98972		-19
684		2		2		0.736031		-2.90831		-19
685		2		2		1.64045		-2.51176		-19
686		2		2		2.36712		-1.84303		-19
687		2		2		2.83728		-0.974597		-19
688		2		2		3		-0.000555922		-19
689		2		2		2.83746		0.974071		-18
690		2		2		2.36746		1.84259		-18
691		2		2		1.64092		2.51145		-18
692		2		2		0.73657		2.90817		-18
693		2		2		-0.247592		2.98977		-18
694		2		2		-1.20493		2.74739		-18
695		2		2		-2.03169		2.20731		-18
696		2		2		-2.63831		1.42805		-18
697		2		2		-2.95904		0.494044		-18
698		2		2		-2.95913		-0.493495		-18
699		2		2		-2.63857		-1.42756		-18
700		2		2		-2.0321		-2.20693		-18
701		2		2		-1.20543		-2.74717		-18
702		2		2		-0.248146		-2.98972		-18
703		2		2		0.736031		-2.90831		-18
704		2		2		1.64045		-2.51176		-18
705		2		2		2.36712		-1.84303		-18
706		2		2		2.83728		-0.974597		-18
707		2		2		3		-0.000555922		-18
708		2		2		2.83746		0.974071		-17
709		2		2		2.36746		1.84259		-17
710		2		2		1.64092		2.51145		-17
711		2		2		0.73657		2.90817		-17
712		2		2		-0.247592		2.98977		-17
713		2		2		-1.20493		2.74739		-17
714		2		2		-2.03169		2.20731		-17
715		2		2		-2.63831		1.42805		-17
716		2		2		-2.95904		0.494044		-17
717		2		2		-2.95913		-0.493495		-17
718		2		2		-2.63857		-1.42756		-17
719		2		2		-2.0321		-2.20693		-17
720		2		2		-1.20543		-2.74717		-17
721		2		2		-0.248146		-2.98972		-17
722		2		2		0.736031		-2.90831		-17
723		2		2		1.64045		-2.51176		-17
724		2		2		2.36712		-1.84303		-17
725		2		2		2.83728		-0.974597		-17
726		2		2		3		-0.000555922		-17
727		2		2		2.83746		0.974071		-16
728		2		2		2.36746		1.84259		-16
729		2		2		1.64092		2.51145		-16
730		2		2		0.73657		2.90817		-16
731		2		2		-0.247592		2.98977		-16
732		2		2		-1.20493		2.74739		-16
733		2		2		-2.03169		2.20731		-16
734		2		2		-2.63831		1.42805		-16
735		2		2		-2.95904		0.494044		-16
736		2		2		-2.95913		-0.493495		-16
737		2		2		-2.63857		-1.42756		-16
738		2		2		-2.0321		-2.20693		-16
739		2		2		-1.20543		-2.74717		-16
740		2		2		-0.248146		-2.98972		-16
741		2		2		0.736031		-2.90831		-16
742		2		2		1.64045		-2.51176		-16
743		2		2		2.36712		-1.84303		-16
744		2		2		2.83728		-0.974597		-16
745		2		2		3		-0.000555922		-16
746		2		2		2.83746		0.974071		-15
747		2		2		2.36746		1.84259		-15
748		2		2		1.64092		2.51145		-15
749		2		2		0.73657		2.90817		-15
750		2		2		-0.247592		2.98977		-15
751		2		2		-1.20493		2.74739		-15
752		2		2		-2.03169		2.20731		-15
753		2		2		-2.63831		1.42805		-15
754		2		2		-2.95904		0.494044		-15
755		2		2		-2.95913		-0.493495		-15
756		2		2		-2.63857		-1.42756		-15
757		2		2		-2.0321		-2.20693		-15
758		2		2		-1.20543		-2.74717		-15
759		2		2		-0.248146		-2.98972		-15
760		2		2		0.736031		-2.90831		-15
761		2		2		1.64045		-2.51176		-15
762		2		2		2.36712		-1.84303		-15
763		2		2		2.83728		-0.974597		-15
764		2		2		3		-0.000555922		-15
765		2		2		2.83746		0.974071		-14
766		2		2		2.36746		1.84259		-14
767		2		2		1.64092		2.51145		-14
768		2		2		0.73657		2.90817		-14
769		2		2		-0.247592		2.98977		-14
770		2		2		-1.20493		2.74739		-14
771		2		2		-2.03169		2.20731		-14
772		2		2		-2.63831		1.42805		-14
773		2		2		-2.95904		0.494044		-14
774		2		2		-2.95913		-0.493495		-14
775		2		2		-2.63857		-1.42756		-14
776		2		2		-2.0321		-2.20693		-14
777		2		2		-1.20543		-2.74717		-14
778		2		2		-0.248146		-2.98972		-14
779		2		2		0.736031		-2.90831		-14
780		2		2		1.64045		-2.51176		-14
781		2		2		2.36712		-1.84303		-14
782		2		2		2.83728		-0.974597		-14
783		2		2		3		-0.000555922		-14
784		2		2		2.83746		0.974071		-13
785		2		2		2.36746		1.84259		-13
786		2		2		1.64092		2.51145		-13
787		2		2		0.73657		2.90817		-13
788		2		2		-0.247592		2.98977		-13
789		2		2		-1.20493		2.74739		-13
790		2		2		-2.03169		2.20731		-13
791		2		2		-2.63831		1.42805		-13
792		2		2		-2.95904		0.494044		-13
793		2		2		-2.95913		-0.493495		-13
794		2		2		-2.63857		-1.42756		-13
795		2		2		-2.0321		-2.20693		-13
796		2		2		-1.20543		-2.74717		-13
797		2		2		-0.248146		-2.98972		-13
798		2		2		0.736031		-2.90831		-13
799		2		2		1.64045		-2.51176		-13
800		2		2		2.36712		-1.84303		-13
801		2		2		2.83728		-0.974597		-13
802		2		2		3		-0.000555922		-13
803		2		2		2.83746		0.974071		-12
804		2		2		2.36746		1.84259		-12
805		2		2		1.64092		2.51145		-12
806		2		2		0.73657		2.90817		-12
807		2		2		-0.247592		2.98977		-12
808		2		2		-1.20493		2.74739		-12
809		2		2		-2.03169		2.20731		-12
810		2		2		-2.63831		1.42805		-12
811		2		2		-2.95904		0.494044		-12
812		2		2		-2.95913		-0.493495		-12
813		2		2		-2.63857		-1.42756		-12
814		2		2		-2.0321		-2.20693		-12
815		2		2		-1.20543		-2.74717		-12
816		2		2		-0.248146		-2.98972		-12
817		2		2		0.736031		-2.90831		-12
818		2		2		1.64045		-2.51176		-12
819		2		2		2.36712		-1.84303		-12
820		2		2		2.83728		-0.974597		-12
821		2		2		3		-0.000555922		-12
822		2		2		2.83746		0.974071		-11
823		2		2		2.36746		1.84259		-11
824		2		2		1.64092		2.51145		-11
825		2		2		0.73657		2.90817		-11
826		2		2		-0.247592		2.98977		-11
827		2		2		-1.20493		2.74739		-11
828		2		2		-2.03169		2.20731		-11
829		2		2		-2.63831		1.42805		-11
830		2		2		-2.95904		0.494044		-11
831		2		2		-2.95913		-0.493495		-11
832		2		2		-2.63857		-1.42756		-11
833		2		2		-2.0321		-2.20693		-11
834		2		2		-1.20543		-2.74717		-11
835		2		2		-0.248146		-2.98972		-11
836		2		2		0.736031		-2.90831		-11
837		2		2		1.64045		-2.51176		-11
838		2		2		2.36712		-1.84303		-11
839		2		2		2.83728		-0.974597		-11
840		2		2		3		-0.000555922		-11
841		2		2		2.83746		0.974071		-10
842		2		2		2.36746		1.84259		-10
843		2		2		1.64092		2.51145		-10
844		2		2		0.73657		2.90817		-10
845		2		2		-0.247592		2.98977		-10
846		2		2		-1.20493		2.74739		-10
847		2		2		-2.03169		2.20731		-10
848		2		2		-2.63831		1.42805		-10
849		2		2		-2.95904		0.494044		-10
850		2		2		-2.95913		-0.493495		-10
851		2		2		-2.63857		-1.42756		-10
852		2		2		-2.0321		-2.20693		-10
853		2		2		-1.20543		-2.74717		-10
854		2		2		-0.248146		-2.98972		-10
855		2		2		0.736031		-2.90831		-10
856		2		2		1.64045		-2.51176		-10
857		2		2		2.36712		-1.84303		-10
858		2		2		2.83728		-0.974597		-10
859		2		2		3		-0.000555922		-10
860		2		2		2.83746		0.974071		-9
861		2		2		2.36746		1.84259		-9
862		2		2		1.64092		2.51145		-9
863		2		2		0.73657		2.90817		-9
864		2		2		-0.247592		2.98977		-9
865		2		2		-1.20493		2.74739		-9
866		2		2		-2.03169		2.20731		-9
867		2		2		-2.63831		1.42805		-9
868		2		2		-2.95904		0.494044		-9