ITEM: TIMESTEP
0
ITEM: NUMBER OF ATOMS
80
ITEM: BOX BOUNDS ff ff ff
-2.0000000000000000e+01 2.0000000000000000e+01
-2.0000000000000000e+01 2.0000000000000000e+01
-4.0000000000000000e+01 4.0000000000000000e+01
ITEM: ATOMS type id x y z
1 80 -0.47803 -4.085 -0.596936
1 68 -3.41634 -3.2224 -0.611913
1 69 -3.16955 -3.35875 -0.648425
1 73 -2.1778 -3.77099 -0.568829
1 61 -5.02787 -1.82941 -0.957158
1 62 -4.81868 -2.07798 -0.716046
1 8 6.20031 2.67447 -0.837081
1 10 6.01891 3.47489 -0.955271
1 45 -5.88504 3.87129 -0.762589
1 42 -5.31235 5.01265 -0.640086
1 14 5.31272 5.01207 -0.589197
1 28 0.000365982 7.9 -0.815824
1 26 0.915977 7.83377 -0.881388
1 21 3.06772 7.1111 -0.656768
1 74 -1.93131 -3.84435 -0.248517
1 75 -1.68601 -3.90724 0.055985
1 76 -1.44201 -3.96031 -0.301562
1 77 -1.19933 -4.00414 0.528027
1 78 -0.957883 -4.03925 0.220752
1 79 -0.717522 -4.06609 0.47652
1 65 -4.14107 -2.72297 -0.228425
1 67 -3.66117 -3.07138 -0.34613
1 70 -2.92166 -3.48107 -0.317396
1 71 -2.67337 -3.59006 0.364029
1 72 -2.42527 -3.68646 -0.0118263
1 64 -4.37386 -2.52462 -0.393429
1 59 -5.41222 -1.28215 -0.253526
1 60 -5.22624 -1.56406 -0.428295
1 55 -6.00018 0.000555938 0.19117
1 56 -5.87977 -0.341901 -0.088372
1 2 6.10013 0.355282 -0.0717076
1 51 -6.26466 1.48532 -0.359713
1 52 -6.23383 1.09976 -0.0922737
1 53 -6.17862 0.722736 -0.111947
1 3 6.17851 0.722143 -0.0629778
1 4 6.23376 1.09915 0.0307284
1 5 6.26463 1.4847 0.259797
1 48 -6.20022 2.6751 -0.353784
1 49 -6.24875 2.27494 0.205573
1 50 -6.26996 1.87768 -0.395057
1 6 6.26997 1.87705 -0.0348432
1 7 6.24881 2.27431 -0.0153736
1 46 -6.01872 3.47553 0.384527
1 47 -6.12369 3.07604 0.272497
1 9 6.12383 3.0754 0.494996
1 43 -5.53158 4.64223 0.470128
1 11 5.88528 3.87066 0.0514697
1 12 5.72289 4.26036 -0.100827
1 13 5.53191 4.64163 -0.0799878
1 41 -5.06554 5.36989 -0.0145083
1 40 -4.79196 5.71162 0.482214
1 15 5.06595 5.36933 -0.377146
1 37 -3.82234 6.62144 0.449381
1 38 -4.16899 6.33952 -0.384462
1 39 -4.49269 6.03555 0.203044
1 36 -3.45442 6.87935 -0.128019
1 20 3.45502 6.87896 -0.453413
1 19 3.82291 6.62101 -0.0358324
1 35 -3.06709 7.11145 -0.15525
1 33 -2.24245 7.4918 0.495494
1 34 -2.66237 7.31608 0.0564417
1 30 -0.915254 7.83388 -0.0755936
1 27 0.459509 7.8834 -0.218347
1 29 -0.458779 7.88345 0.217407
1 25 1.36713 7.75148 0.4468
1 24 1.81035 7.63713 0.494368
1 66 -3.90311 -2.90508 0.804348
1 63 -4.60019 -2.30969 0.664595
1 57 -5.74059 -0.67042 0.862604
1 58 -5.5842 -0.984083 0.546904
1 54 -6.10028 0.355857 0.65023
1 1 6 0 0.990403
1 44 -5.72261 4.26098 0.962331
1 16 4.79242 5.71109 0.614466
1 17 4.49319 6.03505 0.658247
1 18 4.16953 6.33906 0.945315
1 32 -1.80965 7.63734 0.832931
1 31 -1.36641 7.75164 0.673984
1 22 2.66302 7.31578 0.609796
1 23 2.24313 7.49155 0.978883
ITEM: TIMESTEP
5000
ITEM: NUMBER OF ATOMS
80
ITEM: BOX BOUNDS ff ff ff
-2.0000000000000000e+01 2.0000000000000000e+01
-2.0000000000000000e+01 2.0000000000000000e+01
-4.0000000000000000e+01 4.0000000000000000e+01
ITEM: ATOMS type id x y z
1 69 -2.68453 -3.9244 -1.05997
1 70 -1.87079 -4.48232 -1.04923
1 68 -2.81722 -2.94924 -0.981522
1 80 1.33736 -3.33095 -0.887942
1 64 -5.10931 -2.31399 -0.857053
1 61 -5.26483 -2.12177 -1.23495
1 60 -5.77047 -1.26374 -1.38973
1 59 -6.22894 -0.893967 -0.577565
1 48 -5.35542 2.42487 -0.937478
1 8 6.30851 1.47196 -1.07548
1 9 6.39892 2.46312 -0.9276
1 47 -6.16346 3.03192 -0.967357
1 14 4.66112 4.51076 -0.650343
1 15 4.07869 5.17763 -1.10827
1 16 4.62989 5.64883 -0.418993
1 25 1.26491 6.80586 -1.59189
1 71 -0.97562 -4.91537 -1.04563
1 72 -1.27473 -4.20327 -0.444535
1 78 0.448719 -4.58352 0.331103
1 79 1.03807 -4.00439 -0.223767
1 67 -2.75081 -1.96624 -0.874599
1 73 -1.9072 -3.48135 -0.0990639
1 74 -2.41789 -2.65226 0.132501
1 62 -6.07169 -2.25857 -0.651467
1 65 -4.20889 -2.333 -0.437727
1 66 -3.41925 -1.78772 -0.148132
1 58 -5.89008 -0.942555 0.364093
1 63 -5.67546 -1.69962 -1.3928
1 57 -5.06716 -0.463601 0.687201
1 56 -4.25999 0.107261 0.878895
1 52 -6.50013 0.813007 0.595344
1 53 -6.18125 0.845801 -0.35943
1 54 -5.20481 0.944613 -0.173728
1 55 -4.69882 0.972206 0.68787
1 7 5.71252 1.38123 -0.28581
1 49 -5.54943 2.35113 0.0426359
1 46 -6.32175 3.38445 -0.0502619
1 12 5.33124 3.96912 1.08266
1 10 5.86225 3.01544 -0.290405
1 11 5.88916 3.24617 0.669344
1 45 -6.52597 3.90926 0.773982
1 44 -6.05213 4.36314 0.0190814
1 13 4.82254 4.38208 0.32559
1 42 -5.879 5.62476 0.171143
1 43 -5.22885 4.90974 -0.0713316
1 21 2.3296 5.37907 -0.561482
1 20 2.95775 4.62636 -0.437394
1 19 3.65542 4.98919 0.204214
1 41 -5.52404 6.55185 -0.00619093
1 40 -4.69688 7.07065 0.244232
1 37 -3.48688 6.00352 0.490078
1 36 -2.58001 5.9162 0.887196
1 38 -3.7347 6.90101 0.0988624
1 24 1.32205 6.68673 -0.598608
1 22 2.65771 6.18593 -0.0708095
1 23 1.94038 6.83622 0.172038
1 17 4.80544 6.37567 0.24746
1 39 -4.06479 7.84571 0.11292
1 29 -1.04879 8.21928 0.342486
1 26 0.780441 7.27465 -0.837516
1 28 -0.336079 8.4345 -0.338155
1 27 0.547074 8.22685 -0.734009
1 76 -1.2137 -4.02288 0.587439
1 77 -0.534336 -4.73922 0.471431
1 75 -2.02311 -3.42014 0.651981
1 2 5.68582 -0.312285 1.01069
1 3 4.87598 0.252105 0.807551
1 4 5.82275 0.504489 0.795171
1 1 6.62562 -0.0753371 1.27588
1 51 -5.65631 0.712237 1.12367
1 50 -5.54402 1.64729 0.736369
1 5 5.55465 1.17787 1.47938
1 6 5.18091 1.2536 0.547298
1 33 -1.53378 5.66427 0.70812
1 18 4.53747 5.42234 0.362713
1 35 -2.91745 6.58352 1.54229
1 34 -2.10498 6.00811 1.45245
1 32 -0.796738 6.23658 1.06589
1 31 -1.16003 6.85321 1.74769
1 30 -1.1217 7.68485 1.19162
ITEM: TIMESTEP
10000
ITEM: NUMBER OF ATOMS
80
ITEM: BOX BOUNDS ff ff ff
-2.0000000000000000e+01 2.0000000000000000e+01
-2.0000000000000000e+01 2.0000000000000000e+01
-4.0000000000000000e+01 4.0000000000000000e+01
ITEM: ATOMS type id x y z
1 80 0.00684583 -3.15676 -2.13318
1 70 -2.41574 -3.70691 -1.82505
1 69 -2.50119 -2.71432 -1.72079
1 68 -3.04621 -1.96904 -1.4249
1 60 -4.55634 -1.5102 -1.88593
1 71 -1.50651 -3.3485 -2.09845
1 79 -0.110569 -3.39448 -1.16818
1 61 -5.5172 -1.78196 -1.86727
1 62 -5.51022 -1.63865 -0.882918
1 67 -2.70341 -2.38377 -0.577865
1 72 -1.15222 -3.06759 -1.21069
1 59 -5.02352 -1.08095 -1.10738
1 54 -4.4077 0.573701 -1.37077
1 55 -3.6046 0.247104 -0.850724
1 53 -5.30529 0.762921 -0.98858
1 9 5.69413 2.52914 -0.604388
1 16 5.20503 5.46214 -1.23187
1 24 1.21397 5.78883 -1.19603
1 25 0.814337 6.64205 -0.861752
1 77 -0.270398 -4.06393 0.69983
1 73 -1.56987 -3.14256 -0.31044
1 78 -0.259432 -3.55126 -0.165209
1 63 -4.93237 -1.7854 -0.0752576
1 66 -2.3343 -2.23506 0.337856
1 57 -4.44434 -0.730085 0.358922
1 58 -5.28251 -0.778462 -0.185875
1 56 -3.61521 -0.382335 -0.0746195
1 2 6.33124 -0.00373361 0.305045
1 1 6.70182 -0.551725 1.07075
1 52 -5.3712 0.630468 -0.00238709
1 3 5.47646 0.35529 -0.0886276
1 4 5.08687 0.674273 0.783573
1 6 5.38249 1.20162 1.19274
1 46 -6.3803 2.30958 -0.815428
1 47 -5.44875 2.06612 -0.540617
1 48 -5.4514 2.54586 0.328777
1 7 4.78544 1.47842 0.441226
1 8 5.05515 1.77514 -0.467637
1 45 -6.46179 2.98578 -0.100311
1 44 -5.66664 3.60453 0.0414404
1 13 4.13598 3.68959 0.00426507
1 10 6.12018 3.21016 -0.0378349
1 43 -5.63022 4.59178 0.185696
1 14 4.50326 3.98209 -0.887992
1 15 5.34025 4.51768 -0.970719
1 42 -5.66645 5.32978 -0.467353
1 41 -5.27267 6.2331 -0.242366
1 36 -2.52583 5.56408 0.539048
1 23 1.3199 5.03124 -0.55428
1 21 2.26011 5.95193 0.770359
1 20 3.17394 6.0617 0.386267
1 19 3.74835 5.27591 0.140825
1 40 -5.24827 6.64254 0.678507
1 17 5.15895 6.06403 -0.44076
1 26 0.519424 7.42549 -0.314087
1 27 1.0173 7.32364 0.554438
1 75 -1.76425 -3.90858 1.39475
1 76 -0.934878 -4.47162 1.34042
1 74 -1.80095 -3.24291 0.650941
1 64 -4.04342 -1.76747 0.389363
1 65 -3.20484 -2.11817 0.806032
1 51 -5.83639 0.828007 0.860972
1 5 6.01893 0.435915 1.05301
1 50 -6.22058 1.45806 1.53869
1 49 -5.98101 2.37841 1.17678
1 12 4.91823 3.27055 0.478103
1 11 5.81224 3.10646 0.902472
1 32 -1.24716 4.77534 0.868322
1 35 -3.05015 4.84608 0.985549
1 31 -1.09602 5.74131 0.856072
1 22 1.76824 5.20727 0.320254
1 18 4.61015 5.74631 0.330687
1 38 -3.62878 6.57441 1.03508
1 37 -2.65465 6.48574 0.859317
1 30 -1.37859 6.57264 1.31882
1 39 -4.42059 7.17645 0.88017
1 29 -0.659644 7.21277 1.60403
1 28 0.127068 7.18911 0.975246
1 34 -2.79362 4.74973 1.93641
1 33 -1.85024 4.98736 1.63779
ITEM: TIMESTEP
15000
ITEM: NUMBER OF ATOMS
80
ITEM: BOX BOUNDS ff ff ff
-2.0000000000000000e+01 2.0000000000000000e+01
-2.0000000000000000e+01 2.0000000000000000e+01
-4.0000000000000000e+01 4.0000000000000000e+01
ITEM: ATOMS type id x y z
1 68 -2.41033 -2.82964 -1.38727
1 71 -0.676359 -1.71061 -1.97745
1 72 0.122218 -1.80332 -1.36803
1 79 -0.426565 -4.12245 -0.139804
1 69 -1.55538 -2.82955 -1.8653
1 61 -4.8858 -2.60115 -1.55995
1 62 -5.24028 -2.66259 -0.616718
1 60 -5.05714 -1.67644 -1.22854
1 67 -2.87002 -1.95937 -1.15173
1 70 -1.59176 -1.87117 -1.60926
1 73 0.314173 -2.00899 -0.398741
1 59 -5.54034 -0.809921 -1.41133
1 66 -2.99263 -1.57466 -0.233716
1 53 -5.35385 1.00092 -0.706089
1 54 -4.41653 1.31641 -0.801635
1 8 4.86067 1.96658 -1.28189
1 9 5.34446 2.59808 -0.656029
1 45 -5.82485 3.13527 -0.92943
1 15 4.4979 3.26923 -0.478085
1 44 -5.70367 4.06577 -1.24929
1 24 1.01016 4.67362 -1.1128
1 16 5.12172 3.97559 -0.825112
1 43 -5.67275 5.04104 -1.02563
1 25 1.32038 5.58421 -1.41598
1 42 -5.4797 5.94388 -1.39428
1 78 -0.615302 -4.77777 0.602996
1 80 -0.11961 -3.21904 -0.467337
1 64 -3.77955 -1.66647 0.330875
1 74 -0.575889 -2.04749 0.047934
1 58 -5.92096 -0.717511 -0.493659
1 63 -4.53317 -2.18196 -0.0649504
1 57 -5.27253 -0.490927 0.236228
1 65 -3.28506 -0.798708 0.355703
1 56 -4.44678 0.0431005 0.00898735
1 3 5.04994 -0.0223468 -0.0366116
1 52 -5.17194 1.03515 0.288569
1 55 -3.87239 0.851196 -0.100438
1 4 5.98071 0.28427 -0.180871
1 6 4.94151 1.41967 0.129852
1 5 5.89277 1.15545 0.311426
1 47 -5.21594 2.37129 0.155336
1 7 4.29934 1.90333 -0.45331
1 10 5.90667 2.869 0.113798
1 46 -6.07157 2.87413 -0.00314478
1 14 5.23212 3.73895 -0.00460313
1 31 -0.723135 4.51062 0.627736
1 23 1.15585 4.10244 -0.302186
1 20 2.31065 4.18718 0.258935
1 17 4.47919 4.37505 -0.204887
1 21 1.55553 4.83513 0.397314
1 18 3.85225 5.09777 0.0583534
1 41 -5.75386 6.58977 -0.675011
1 26 1.38373 5.95301 -0.499767
1 27 0.738604 6.38724 0.126226
1 77 -0.399647 -4.49463 1.54521
1 76 -0.629688 -3.72253 0.970669
1 75 -0.501276 -2.74511 0.760384
1 2 5.22827 -0.786656 0.588886
1 1 5.98224 -0.13724 0.477703
1 49 -4.64408 1.35356 1.27673
1 51 -5.22138 1.79515 0.938124
1 48 -4.48588 1.7548 0.37931
1 34 -1.74872 4.19343 1.3778
1 13 5.22878 3.59469 0.977285
1 12 5.59361 3.52015 1.91746
1 11 5.95293 3.09669 1.08425
1 35 -2.31517 4.53527 0.606806
1 32 -1.18712 3.64176 0.798902
1 22 0.866384 4.18499 0.665287
1 36 -3.11262 4.64658 1.20227
1 37 -3.51632 5.46325 1.59798
1 30 -0.871391 5.34336 1.15965
1 19 2.95711 4.9184 0.507414
1 40 -5.26687 6.62838 0.187289
1 39 -4.7586 6.67848 1.01573
1 38 -4.00118 6.34538 1.57396
1 29 -0.649504 6.25656 1.53633
1 28 0.0908521 6.394 0.870025
1 50 -4.81938 2.2082 1.76044
1 33 -1.28202 3.40097 1.75505
ITEM: TIMESTEP
20000
ITEM: NUMBER OF ATOMS
80
ITEM: BOX BOUNDS ff ff ff
-2.0000000000000000e+01 2.0000000000000000e+01
-2.0000000000000000e+01 2.0000000000000000e+01
-4.0000000000000000e+01 4.0000000000000000e+01
ITEM: ATOMS type id x y z
1 80 -0.978144 -3.99638 -1.11344
1 61 -4.78556 -2.18525 -1.96546
1 68 -1.96305 -2.59103 -1.93338
1 69 -1.10151 -2.07922 -1.97786
1 60 -5.21611 -1.4193 -1.47376
1 70 -0.628593 -1.23696 -2.22759
1 44 -6.2676 3.86593 -1.49023
1 79 -0.205635 -3.4291 -0.852156
1 62 -3.87182 -2.55811 -1.74062
1 67 -1.91919 -1.74703 -1.39402
1 72 0.369811 -1.21124 -0.596169
1 59 -5.40148 -0.943862 -0.632606
1 66 -2.64616 -1.3455 -0.821439
1 71 -0.135388 -0.935599 -1.42077
1 7 4.56792 0.785138 -1.10563
1 9 6.0321 2.06723 -0.885231
1 45 -5.93095 3.01855 -1.12135
1 46 -5.52718 2.7129 -0.264018
1 15 5.66305 3.90134 -0.685593
1 24 1.10717 4.48477 -0.767444
1 16 4.78612 3.7241 -0.241345
1 43 -6.28678 4.86508 -1.56244
1 42 -5.89485 5.53907 -0.945206
1 78 0.501698 -4.1064 -0.683466
1 63 -4.03554 -1.99755 -0.928176
1 73 0.331394 -2.09346 -0.118611
1 58 -5.07029 -1.16825 0.270579
1 64 -3.88327 -1.52097 -0.0635225
1 65 -2.91552 -1.29561 0.137191
1 1 5.57186 -0.554051 0.104102
1 57 -4.5095 -0.352568 0.162464
1 56 -3.89316 0.426894 0.406112
1 4 4.68344 -0.323195 0.297801
1 5 4.77821 0.656209 0.482434
1 54 -4.90593 0.93108 0.257347
1 55 -4.02824 1.41976 0.350426
1 6 4.10715 0.889883 -0.223178
1 47 -5.16304 2.35954 0.589953
1 8 5.17856 1.54938 -0.901328
1 10 6.48431 2.61448 -0.177493
1 33 -1.66007 3.05064 -0.292856
1 32 -1.08579 3.29072 0.503073
1 23 1.23463 3.54924 -0.424059
1 14 5.30928 3.83421 0.23575
1 34 -2.00319 3.94878 -0.0478028
1 18 3.92156 4.258 0.572065
1 17 4.02343 4.38598 -0.406829
1 41 -5.55554 5.74962 -0.0352686
1 40 -4.81411 5.5042 0.591995
1 25 0.67549 5.01133 -0.043917
1 20 2.18202 5.02323 0.0957019
1 26 0.127551 5.8404 0.0227011
1 27 -0.534513 6.57555 0.183714
1 77 0.359541 -4.07138 0.310501
1 75 0.0705309 -2.65439 1.49236
1 76 -0.156239 -3.4438 0.900318
1 74 -0.312795 -2.43004 0.594117
1 3 4.23057 -1.19302 0.492637
1 2 5.21125 -1.25354 0.695389
1 53 -5.66404 1.09954 0.887923
1 49 -4.01373 1.5349 1.82804
1 48 -4.86639 1.86916 1.41993
1 22 1.82957 3.36982 0.35591
1 11 5.90523 2.48341 0.610399
1 12 5.19581 2.73522 1.25413
1 36 -2.83192 5.14953 0.688869
1 35 -2.31446 4.88884 -0.120429
1 31 -0.911159 4.1957 0.87617
1 21 1.50378 4.31405 0.282692
1 19 3.11426 4.79785 0.319115
1 13 5.31339 3.72381 1.23637
1 39 -5.04874 5.58124 1.56178
1 37 -3.47368 5.27331 1.46466
1 30 -0.73623 5.14355 0.598947
1 29 -0.152836 5.92143 0.321275
1 28 0.322468 6.72818 0.662946
1 52 -5.40779 0.740358 1.78238
1 51 -5.05091 0.22886 2.57642
1 50 -4.25633 0.839046 2.51257
1 38 -4.16074 5.79318 1.96576
ITEM: TIMESTEP
25000
ITEM: NUMBER OF ATOMS
80
ITEM: BOX BOUNDS ff ff ff
-2.0000000000000000e+01 2.0000000000000000e+01
-2.0000000000000000e+01 2.0000000000000000e+01
-4.0000000000000000e+01 4.0000000000000000e+01
ITEM: ATOMS type id x y z
1 69 -1.81081 -1.33387 -3.07022
1 61 -4.98026 -2.66076 -1.05724
1 62 -4.42277 -2.02744 -1.57687
1 68 -2.57237 -1.33008 -2.42446
1 70 -1.10099 -1.53303 -2.38018
1 80 0.110783 -3.11149 -1.61083
1 60 -5.07204 -2.07186 -0.24704
1 63 -3.50815 -1.95349 -1.93875
1 71 -0.564329 -1.09757 -1.66122
1 72 -0.0916646 -1.23109 -0.770776
1 67 -2.67198 -1.09535 -1.44584
1 66 -2.30128 -0.986057 -0.525013
1 57 -3.91997 -0.422217 -0.950851
1 7 3.83877 0.614912 -1.84085
1 8 4.60618 0.760762 -1.18927
1 9 5.16965 1.10703 -0.438832
1 44 -6.40204 3.35217 -0.738794
1 16 3.90998 4.07713 -1.09279
1 15 4.63641 3.40816 -1.17097
1 43 -6.28607 4.32655 -0.556335
1 24 1.96021 4.06903 -0.497862
1 17 4.69332 4.68282 -1.23115
1 42 -6.47145 5.28388 -0.326823
1 26 0.179687 4.9709 -0.711319
1 27 -0.661671 5.22607 -0.236255
1 79 0.458327 -2.55073 -0.866141
1 78 0.793127 -3.19418 -0.177709
1 64 -3.00052 -2.45969 -1.24584
1 65 -2.80295 -1.84626 -0.476817
1 73 -0.300432 -1.61168 0.13462
1 1 4.30494 -2.18636 -0.375412
1 59 -4.8844 -1.14188 0.0861598
1 58 -3.93871 -0.825067 -0.0323194
1 2 4.46399 -1.41974 0.238809
1 56 -3.52221 0.428222 -0.62798
1 3 4.45962 -0.471964 0.533329
1 55 -4.19845 0.993141 -0.142469
1 6 3.40919 0.809471 -0.965263
1 5 4.08102 0.679936 -0.225437
1 10 5.8876 1.18575 0.253817
1 45 -5.98879 3.75146 0.0894773
1 34 -2.13336 3.72646 0.201733
1 33 -1.64634 3.40595 -0.602424
1 23 2.21704 3.09904 -0.408339
1 22 1.96933 3.34328 0.538422
1 21 2.85309 3.57875 0.974574
1 29 0.0131752 4.0256 0.272459
1 28 -0.453512 4.30796 -0.554317
1 25 1.06731 4.48136 -0.709549
1 20 3.42736 4.33392 0.6872
1 18 4.94522 4.28302 -0.351731
1 14 5.16831 3.12075 -0.373037
1 41 -5.71249 4.93648 0.221771
1 75 0.192979 -2.72541 1.53984
1 77 1.57811 -3.33092 0.471238
1 76 1.08789 -3.13957 1.31281
1 74 -0.100861 -1.90397 1.07506
1 4 4.54694 0.518525 0.652364
1 54 -4.69708 1.31327 0.658195
1 48 -4.88458 2.55721 2.09509
1 11 6.09215 2.047 0.73915
1 46 -5.26133 3.26969 0.586392
1 47 -5.07062 2.44657 1.12946
1 32 -1.72369 3.19286 0.384401
1 31 -1.2346 3.31901 1.24684
1 12 6.56583 2.93145 0.74977
1 35 -2.95067 4.2462 0.417696
1 30 -0.349998 3.77535 1.15173
1 19 4.38954 4.43185 0.469098
1 13 5.59996 2.89654 0.50533
1 40 -5.1726 4.72525 1.03526
1 37 -3.14526 5.96116 1.40499
1 36 -2.94473 5.11726 0.891343
1 53 -4.57504 1.09815 1.62817
1 52 -5.11234 0.819722 2.43609
1 49 -4.27283 2.09639 2.74814
1 39 -5.0297 5.51167 1.62824
1 38 -4.13676 5.8603 1.33906
1 51 -4.7637 0.463447 3.30637
1 50 -4.12493 1.23762 3.26118
ITEM: TIMESTEP
30000
ITEM: NUMBER OF ATOMS
80
ITEM: BOX BOUNDS ff ff ff
-2.0000000000000000e+01 2.0000000000000000e+01
-2.0000000000000000e+01 2.0000000000000000e+01
-4.0000000000000000e+01 4.0000000000000000e+01
ITEM: ATOMS type id x y z
1 70 -0.21309 -1.26498 -2.88969
1 69 -1.06441 -0.917675 -3.20277
1 80 -1.21853 -2.96672 -1.57575
1 71 -0.326571 -1.99943 -2.2261
1 72 0.630227 -2.07948 -1.90874
1 67 -1.72374 -1.59068 -2.32849
1 68 -2.03287 -1.10276 -3.15539
1 63 -2.80555 -3.56906 -0.875851
1 61 -4.28761 -2.3708 -1.03288
1 60 -4.26332 -1.49406 -0.565503
1 66 -2.50788 -2.04278 -1.87224
1 65 -2.34767 -2.73476 -1.18537
1 79 -0.343267 -3.0502 -1.09346
1 1 2.14128 -1.15515 -1.23802
1 56 -2.61965 -0.411578 -0.93506
1 57 -2.03085 -1.19035 -0.66334
1 73 0.534107 -1.60064 -1.03313
1 6 4.02196 0.781258 -0.876058
1 7 4.24648 1.20931 -1.75724
1 8 4.81487 2.00159 -1.53372
1 9 5.33625 1.94465 -0.694043
1 44 -6.34201 3.8225 -0.835949
1 15 4.17348 2.84917 -0.968407
1 43 -6.56406 4.45753 -0.0809112
1 26 -0.21074 4.42055 0.0788982
1 16 4.00471 3.81368 -1.1658
1 62 -3.66988 -3.14144 -1.16747
1 64 -2.29802 -2.98411 -0.209618
1 78 0.392641 -3.32344 -0.479343
1 77 0.842654 -2.91573 0.306063
1 59 -3.52291 -1.93674 -0.0293964
1 58 -2.67729 -1.42321 0.0636541
1 74 0.190683 -1.99436 -0.173234
1 2 2.77437 -0.977707 -0.49462
1 3 3.75899 -1.10351 -0.339136
1 55 -3.26111 0.0315726 -0.325458
1 54 -3.40046 0.480367 0.55859
1 4 3.99148 -0.256084 0.158973
1 5 3.37752 0.430294 -0.216426
1 14 4.29953 2.26519 -0.171498
1 10 5.55253 2.63565 -0.02777
1 45 -5.85686 3.43133 -0.0733986
1 46 -5.09262 3.99008 0.231611
1 34 -3.10241 3.71204 1.00985
1 24 0.788684 3.00166 -0.431521
1 23 1.48203 2.67242 0.202635
1 42 -5.79749 5.0947 -0.00709072
1 25 0.518348 3.96412 -0.437744
1 17 3.99125 4.60816 -0.564754
1 27 -0.616498 5.26417 0.419441
1 18 4.22077 5.02647 0.30479
1 75 0.0212314 -2.24656 0.788106
1 76 0.490045 -3.03258 1.23288
1 53 -3.70673 1.40022 0.792471
1 48 -4.68312 2.53921 1.36278
1 33 -2.30988 3.09576 0.972709
1 13 4.70349 1.74021 0.559316
1 11 5.63537 2.51015 0.959264
1 47 -4.57678 3.37417 0.840767
1 32 -1.36398 3.02129 1.26436
1 22 2.41779 2.8751 0.452545
1 21 3.07235 3.50573 0.869254
1 20 3.81798 3.66296 1.51517
1 12 4.9479 2.02065 1.48859
1 38 -4.41518 4.46121 1.60262
1 35 -2.72914 4.47152 0.490903
1 36 -2.72518 5.05665 1.29105
1 28 -0.823573 4.4743 0.981229
1 29 -1.18775 4.44839 1.89405
1 19 4.38315 4.33816 1.03651
1 41 -5.01392 5.58992 0.333633
1 40 -4.39638 4.99046 0.860473
1 39 -3.77397 5.23676 1.61466
1 52 -3.50468 1.42703 1.76489
1 49 -4.70937 1.68615 1.87904
1 31 -1.08656 3.60486 2.03547
1 30 -0.681077 4.19681 2.73524
1 37 -3.42115 4.40161 1.5934
1 50 -4.40416 1.56668 2.81774
1 51 -3.44038 1.30191 2.74909
ITEM: TIMESTEP
35000
ITEM: NUMBER OF ATOMS
80
ITEM: BOX BOUNDS ff ff ff
-2.0000000000000000e+01 2.0000000000000000e+01
-2.0000000000000000e+01 2.0000000000000000e+01
-4.0000000000000000e+01 4.0000000000000000e+01
ITEM: ATOMS type id x y z
1 66 -2.3411 -1.6125 -1.33248
1 80 -1.1415 -2.06505 -1.90263
1 68 -1.48419 -0.533368 -2.43108
1 67 -2.23892 -1.1416 -2.237
1 69 -0.602801 -0.0739878 -2.38229
1 70 0.119635 -0.619892 -1.96086
1 71 1.11057 -0.677186 -1.77486
1 7 3.6267 1.70195 -1.65242
1 8 4.30291 2.44606 -1.64184
1 62 -2.84982 -3.90002 -0.461902
1 61 -3.734 -3.53896 -0.776787
1 60 -4.18045 -2.65452 -0.956669
1 65 -1.98844 -2.47031 -0.936434
1 59 -3.67144 -1.94413 -0.473941
1 79 -0.943227 -1.83584 -0.955394
1 73 0.860645 -2.33194 -0.877092
1 72 1.1849 -1.64892 -1.54627
1 1 2.41006 -1.62492 -0.698061
1 6 2.99586 1.4416 -0.928151
1 9 4.90158 2.72198 -0.890868
1 44 -5.27066 3.09512 -1.38157
1 16 2.42727 3.40295 -1.26896
1 43 -5.47593 3.88776 -0.805795
1 17 2.78164 4.32259 -1.36536
1 18 3.76946 4.43018 -1.29491
1 63 -1.97926 -4.08679 -0.0341868
1 64 -1.66304 -3.162 -0.276636
1 78 -0.651215 -2.61351 -0.404965
1 77 -0.00937035 -3.2228 0.0642516
1 58 -2.74078 -1.67803 -0.269475
1 57 -2.37676 -0.778449 -0.00290665
1 56 -1.65529 -0.417962 0.583839
1 74 0.403109 -2.03497 -0.0372874
1 2 2.37752 -0.948443 0.0190082
1 55 -1.724 0.554207 0.384776
1 4 2.01529 0.0950853 0.0367897
1 54 -2.45516 1.20352 0.416947
1 5 2.67352 0.817975 -0.199806
1 14 2.90357 2.15926 0.0771915
1 15 2.83014 2.61957 -0.800004
1 10 5.33559 2.39227 -0.071326
1 45 -4.82407 2.58742 -0.652192
1 46 -4.28328 2.41897 0.173878
1 35 -2.66168 3.48984 0.44858
1 34 -1.93378 2.79665 0.349915
1 25 0.435425 2.9857 0.101457
1 24 1.09285 2.40059 -0.372422
1 23 1.93482 2.75757 -0.0113252
1 22 2.58179 3.42494 0.336444
1 36 -3.04008 4.18665 -0.161903
1 26 -0.243134 3.69112 0.312763
1 21 2.63835 4.38813 0.619475
1 19 3.50015 4.41789 -0.326168
1 42 -4.70886 4.49806 -0.617895
1 27 -0.440595 4.66443 0.117148
1 75 0.127588 -2.12067 0.902719
1 76 -0.149758 -3.06651 1.03293
1 3 2.32433 -0.400879 0.856755
1 53 -2.27995 0.933602 1.37858
1 13 3.04859 1.4136 0.703514
1 12 3.85802 1.90713 1.03722
1 47 -4.43247 1.682 0.832326
1 33 -1.36121 2.48789 1.11252
1 11 4.52998 1.91832 0.298504
1 39 -3.76926 4.05921 1.62204
1 40 -3.67834 4.85039 1.00981
1 37 -3.15852 4.76761 0.619739
1 38 -2.84159 4.4266 1.50916
1 20 3.62659 4.24332 0.655183
1 41 -4.20689 4.83978 0.166319
1 28 -0.482122 5.19216 0.972024
1 52 -3.03302 0.414126 1.80364
1 51 -3.71077 0.888466 2.37482
1 49 -4.88159 2.17978 2.64762
1 48 -4.77516 1.74117 1.76114
1 50 -4.00724 1.83612 2.36081
1 32 -1.05173 2.6204 2.04732
1 31 -0.188194 2.81929 2.53012
1 29 -0.394078 4.62359 1.79056
1 30 -0.288228 3.80249 2.37462
ITEM: TIMESTEP
40000
ITEM: NUMBER OF ATOMS
80
ITEM: BOX BOUNDS ff ff ff
-2.0000000000000000e+01 2.0000000000000000e+01
-2.0000000000000000e+01 2.0000000000000000e+01
-4.0000000000000000e+01 4.0000000000000000e+01
ITEM: ATOMS type id x y z
1 68 -1.09018 -0.413982 -2.98869
1 66 -2.01713 -1.45478 -1.74197
1 80 -0.598593 -1.77702 -2.47379
1 67 -1.73559 -1.06046 -2.59879
1 69 -0.277454 0.0969008 -2.74594
1 70 0.343199 0.169812 -1.95103
1 16 2.59588 3.00189 -1.50077
1 17 2.8852 3.71652 -2.13843
1 61 -3.5495 -4.17138 -0.237389
1 60 -3.35232 -3.34728 -0.757758
1 64 -1.48365 -3.11402 -0.927017
1 59 -3.04222 -2.42924 -1.02521
1 65 -1.75873 -2.4261 -1.61578
1 78 -0.868487 -2.15527 -0.602184
1 79 -0.83389 -1.6958 -1.50884
1 71 0.315981 0.43859 -0.977515
1 72 1.00929 -0.167353 -0.575643
1 6 3.13036 0.58031 -1.17821
1 44 -4.60374 2.55431 -1.30276
1 7 3.2505 1.45924 -1.63372
1 8 3.9618 2.1396 -1.8461
1 43 -5.0917 3.30919 -0.894626
1 15 2.44545 2.54647 -0.62395
1 18 3.28617 4.42043 -1.56206
1 10 4.20169 2.49207 -0.817182
1 9 4.50578 2.94365 -1.6488
1 19 3.60938 4.28844 -0.62547
1 62 -3.06408 -4.34004 -1.09226
1 63 -2.24707 -3.7539 -0.973813
1 77 -0.630245 -2.90409 0.0169232
1 58 -2.53047 -1.69767 -0.564714
1 76 0.29418 -2.53305 0.0576633
1 2 2.2448 -1.43189 0.856414
1 1 3.12315 -1.8522 0.653896
1 57 -2.46757 -0.876627 0.0104883
1 74 1.09831 -0.952266 0.901438
1 73 1.38563 -0.163275 0.332158
1 56 -2.16227 -0.112754 0.562487
1 55 -1.51418 0.583176 0.224959
1 4 2.30212 0.341596 0.105516
1 5 2.29579 0.896399 -0.722644
1 46 -4.94705 2.09463 0.348863
1 45 -4.5659 1.89202 -0.556396
1 34 -2.08808 1.63333 0.21013
1 14 2.06832 2.33574 0.291267
1 13 2.99824 1.94091 0.283572
1 11 3.61318 1.95793 -0.194065
1 40 -3.13602 3.45166 1.05088
1 35 -2.04167 2.60946 0.416674
1 25 -0.0631469 3.18463 0.449487
1 42 -4.32796 3.73288 -0.414624
1 36 -1.84104 3.58118 0.535299
1 26 -0.243441 4.15152 0.6755
1 20 3.2069 3.75556 0.133123
1 75 0.884651 -1.75242 0.31567
1 3 2.35035 -0.44925 0.720531
1 51 -3.60914 0.329398 1.28085
1 52 -3.16034 -0.0571794 2.08493
1 53 -2.43153 -0.0770479 1.40123
1 54 -1.70796 0.591609 1.21223
1 47 -5.21541 2.46382 1.22506
1 33 -1.23565 1.7706 0.713405
1 23 1.58885 2.63353 1.20519
1 12 3.77762 2.38304 0.696372
1 24 0.898617 2.99397 0.565341
1 22 2.44064 2.88538 1.68665
1 21 3.02632 3.17567 0.922655
1 41 -3.88035 3.83751 0.472438
1 39 -2.57586 4.19541 1.43067
1 37 -1.6508 3.70083 1.51519
1 27 -0.768995 4.97901 0.438551
1 28 -0.912766 5.42735 1.32998
1 50 -4.0876 0.764928 2.041
1 49 -4.83901 1.22944 2.52248
1 48 -5.40643 1.90364 2.05016
1 32 -0.985677 2.12633 1.6047
1 31 -0.475926 2.80552 2.12752
1 30 -0.546253 3.77211 2.38591
1 38 -2.17412 3.98629 2.33615
1 29 -0.661538 4.63066 1.88688
ITEM: TIMESTEP
45000
ITEM: NUMBER OF ATOMS
80
ITEM: BOX BOUNDS ff ff ff
-2.0000000000000000e+01 2.0000000000000000e+01
-2.0000000000000000e+01 2.0000000000000000e+01
-4.0000000000000000e+01 4.0000000000000000e+01
ITEM: ATOMS type id x y z
1 65 -2.14874 -2.34132 -2.93013
1 66 -1.92344 -1.62967 -3.59998
1 67 -1.76775 -0.647479 -3.58237
1 68 -2.01724 -0.460819 -2.63847
1 64 -2.1048 -2.82902 -2.06146
1 80 -0.406925 -0.420804 -2.72585
1 79 -0.57194 -1.34337 -2.36327
1 69 -1.41921 0.0529359 -2.02115
1 7 2.69587 1.52249 -2.38303
1 8 3.49308 1.77675 -1.85335
1 63 -2.01928 -2.81277 -1.06676
1 77 -0.0499688 -2.79208 -1.17519
1 78 -0.272103 -2.17456 -1.91339
1 70 -0.685008 -0.0211669 -1.37173
1 71 0.27941 -0.164804 -1.13476
1 6 1.93309 1.08985 -1.89989
1 5 1.72598 0.975393 -0.931886
1 9 3.91611 1.98975 -0.959866
1 42 -3.62244 3.66131 -0.569866
1 15 2.51859 2.91493 -1.00978
1 16 3.07183 3.70615 -1.28302
1 17 3.99133 3.42255 -1.03138
1 18 4.71834 3.2807 -0.362393
1 61 -3.00234 -4.07987 -0.16897
1 60 -3.17833 -3.09491 -0.238177
1 62 -2.39718 -3.27414 -0.254518
1 59 -2.98893 -2.25163 -0.724152
1 76 0.126393 -2.87903 -0.210176
1 75 0.296279 -2.27365 0.554414
1 58 -2.41216 -1.45895 -0.943256
1 57 -1.93255 -1.0807 -0.159167
1 72 -0.0661539 -0.778993 -0.443037
1 1 2.81916 -1.63521 0.486374
1 56 -1.79389 -0.232382 0.370455
1 73 -0.432458 -0.540558 0.436971
1 4 1.56238 0.50707 -0.0791977
1 3 1.86166 -0.144273 0.613722
1 46 -4.93596 0.931403 0.305271
1 45 -5.175 1.41584 -0.549125
1 34 -1.44959 1.31733 0.190674
1 55 -1.01391 0.3429 0.650076
1 13 2.55222 1.75277 0.0267962
1 44 -4.27379 1.857 -0.652858
1 14 2.04349 2.57174 -0.186215
1 10 3.94036 2.24201 0.00165098
1 43 -4.09667 2.82992 -0.873218
1 41 -3.35426 3.46265 0.3685
1 24 1.22257 3.05594 1.03828
1 19 4.75095 3.75676 0.524163
1 26 -0.229102 4.00087 0.815556
1 25 0.304836 3.17238 0.651691
1 74 0.025073 -1.33601 0.777678
1 2 2.48828 -0.834961 0.975147
1 54 -0.635779 0.124242 1.55782
1 47 -4.94969 1.0607 1.28965
1 51 -2.93025 1.15594 1.6248
1 33 -1.10838 1.38919 1.12514
1 12 3.5447 1.60891 0.0825832
1 35 -1.60751 2.30134 0.308573
1 11 3.73456 2.0446 0.973179
1 36 -1.76854 2.74436 1.18502
1 23 2.21296 3.02525 0.886291
1 22 2.57749 3.60676 1.6017
1 21 3.18394 3.02125 1.04891
1 20 4.13889 3.00012 0.728119
1 40 -3.38131 3.84224 1.2918
1 39 -2.63271 4.48659 1.48222
1 38 -2.26023 4.2862 0.562467
1 27 -0.918736 4.71255 0.925307
1 28 -0.687634 4.69605 1.90016
1 52 -2.27465 0.648076 1.04622
1 53 -1.56271 0.446542 1.73127
1 48 -5.1311 0.518453 2.10647
1 49 -4.12217 0.527339 2.08843
1 50 -3.53772 1.28008 2.39749
1 32 -0.660968 1.86575 1.89311
1 31 -1.24829 2.32515 2.55226
1 37 -2.22645 3.63668 1.34115
1 30 -1.39769 3.31781 2.43439
1 29 -0.752796 4.05129 2.66944
ITEM: TIMESTEP
50000
ITEM: NUMBER OF ATOMS
80
ITEM: BOX BOUNDS ff ff ff
-2.0000000000000000e+01 2.0000000000000000e+01
-2.0000000000000000e+01 2.0000000000000000e+01
-4.0000000000000000e+01 4.0000000000000000e+01
ITEM: ATOMS type id x y z
1 66 -1.13602 -1.57565 -3.28372
1 64 -1.1981 -2.88414 -2.83855
1 65 -1.18839 -2.45202 -3.74252
1 67 -1.59211 -0.753295 -3.66921
1 68 -2.20631 -0.128302 -3.1996
1 63 -1.81974 -2.57853 -2.10503
1 78 0.307168 -1.64615 -1.81549
1 79 0.381534 -1.22058 -2.73382
1 69 -1.41418 0.350032 -2.86393
1 80 0.343696 -0.245822 -2.50613
1 6 1.81729 0.792751 -1.50494
1 7 2.23115 1.38786 -2.18194
1 8 3.05582 1.50712 -1.64135
1 62 -1.75502 -3.08908 -1.23823
1 59 -2.89575 -2.14833 -0.705221
1 77 0.277135 -2.23868 -1.0269
1 58 -2.7752 -1.29591 -0.197594
1 71 -0.43039 0.452698 -1.15247
1 5 1.26671 0.7813 -0.654096
1 70 -1.01684 0.454489 -1.95225
1 12 3.68994 0.719447 -0.649916
1 11 4.63041 0.969979 -0.692716
1 43 -4.86083 2.23159 -0.479084
1 9 3.72145 2.04856 -1.14095
1 10 4.57745 1.64361 -1.44237
1 15 1.90572 3.07014 -0.497578
1 16 2.86452 3.13405 -0.796543
1 17 3.74218 2.97829 -0.333458
1 61 -2.02365 -3.71704 -0.515843
1 60 -2.7277 -3.04836 -0.352701
1 76 -0.581404 -2.45582 -0.578973
1 75 0.000895453 -2.09192 0.138153
1 57 -1.97122 -1.52846 0.347712
1 56 -1.18529 -1.07569 -0.088521
1 74 0.852043 -1.67557 0.424616
1 73 0.404799 -0.983578 -0.163352
1 55 -0.485607 -0.521548 0.382743
1 72 0.0584741 -0.0764995 -0.427329
1 13 2.99584 1.445 -0.655999
1 4 1.78679 0.823022 0.207626
1 44 -5.84055 2.25383 -0.603961
1 45 -5.84218 1.55549 0.0887216
1 14 2.33638 2.19017 -0.512941
1 18 4.53454 2.51733 0.055823
1 42 -4.10732 2.83229 -0.227567
1 41 -3.46315 3.54206 0.0758182
1 40 -3.2324 4.51025 0.0107066
1 39 -2.55202 5.10867 0.430325
1 1 1.57143 -1.53835 1.48535
1 2 1.68736 -0.658032 1.04676
1 52 -1.76335 0.40915 1.3957
1 54 0.0682755 0.0369583 1.00215
1 3 1.54596 0.334563 1.03194
1 46 -5.38591 1.08001 0.842989
1 47 -5.32914 0.620071 1.73351
1 51 -2.37222 1.19202 1.5343
1 33 -0.940206 1.15912 0.923236
1 34 -0.402446 1.47249 1.7026
1 50 -2.91927 1.9965 1.30279
1 23 1.19904 2.59044 1.45315
1 22 2.06799 2.31237 1.05828
1 21 2.93734 2.49686 1.51728
1 37 -1.79125 3.73551 1.18587
1 36 -1.06452 3.22017 1.6237
1 20 3.14523 2.63703 0.552379
1 19 4.06269 2.8886 0.85897
1 38 -1.7259 4.62573 0.714521
1 53 -0.85245 0.0104069 1.39308
1 48 -4.34175 0.697147 1.81182
1 49 -3.70596 1.40608 1.50896
1 35 -0.445183 2.44975 1.78377
1 32 -1.19707 1.99331 1.39911
1 25 0.509139 2.6172 2.16731
1 24 0.781062 1.74759 1.75552
1 31 -1.75621 2.53652 2.02897
1 26 -0.252087 3.16189 2.54978
1 28 -1.2029 4.57557 2.49578
1 30 -2.27355 3.06415 2.70883