ITEM: TIMESTEP
0
ITEM: NUMBER OF ATOMS
80
ITEM: BOX BOUNDS ff ff ff
-2.0000000000000000e+01 2.0000000000000000e+01
-2.0000000000000000e+01 2.0000000000000000e+01
-4.0000000000000000e+01 4.0000000000000000e+01
ITEM: ATOMS type id x y z
1 80 -0.47803 -4.085 -0.596936
1 68 -3.41634 -3.2224 -0.611913
1 69 -3.16955 -3.35875 -0.648425
1 73 -2.1778 -3.77099 -0.568829
1 61 -5.02787 -1.82941 -0.957158
1 62 -4.81868 -2.07798 -0.716046
1 8 6.20031 2.67447 -0.837081
1 10 6.01891 3.47489 -0.955271
1 45 -5.88504 3.87129 -0.762589
1 42 -5.31235 5.01265 -0.640086
1 14 5.31272 5.01207 -0.589197
1 28 0.000365982 7.9 -0.815824
1 26 0.915977 7.83377 -0.881388
1 21 3.06772 7.1111 -0.656768
1 74 -1.93131 -3.84435 -0.248517
1 75 -1.68601 -3.90724 0.055985
1 76 -1.44201 -3.96031 -0.301562
1 77 -1.19933 -4.00414 0.528027
1 78 -0.957883 -4.03925 0.220752
1 79 -0.717522 -4.06609 0.47652
1 65 -4.14107 -2.72297 -0.228425
1 67 -3.66117 -3.07138 -0.34613
1 70 -2.92166 -3.48107 -0.317396
1 71 -2.67337 -3.59006 0.364029
1 72 -2.42527 -3.68646 -0.0118263
1 64 -4.37386 -2.52462 -0.393429
1 59 -5.41222 -1.28215 -0.253526
1 60 -5.22624 -1.56406 -0.428295
1 55 -6.00018 0.000555938 0.19117
1 56 -5.87977 -0.341901 -0.088372
1 2 6.10013 0.355282 -0.0717076
1 51 -6.26466 1.48532 -0.359713
1 52 -6.23383 1.09976 -0.0922737
1 53 -6.17862 0.722736 -0.111947
1 3 6.17851 0.722143 -0.0629778
1 4 6.23376 1.09915 0.0307284
1 5 6.26463 1.4847 0.259797
1 48 -6.20022 2.6751 -0.353784
1 49 -6.24875 2.27494 0.205573
1 50 -6.26996 1.87768 -0.395057
1 6 6.26997 1.87705 -0.0348432
1 7 6.24881 2.27431 -0.0153736
1 46 -6.01872 3.47553 0.384527
1 47 -6.12369 3.07604 0.272497
1 9 6.12383 3.0754 0.494996
1 43 -5.53158 4.64223 0.470128
1 11 5.88528 3.87066 0.0514697
1 12 5.72289 4.26036 -0.100827
1 13 5.53191 4.64163 -0.0799878
1 41 -5.06554 5.36989 -0.0145083
1 40 -4.79196 5.71162 0.482214
1 15 5.06595 5.36933 -0.377146
1 37 -3.82234 6.62144 0.449381
1 38 -4.16899 6.33952 -0.384462
1 39 -4.49269 6.03555 0.203044
1 36 -3.45442 6.87935 -0.128019
1 20 3.45502 6.87896 -0.453413
1 19 3.82291 6.62101 -0.0358324
1 35 -3.06709 7.11145 -0.15525
1 33 -2.24245 7.4918 0.495494
1 34 -2.66237 7.31608 0.0564417
1 30 -0.915254 7.83388 -0.0755936
1 27 0.459509 7.8834 -0.218347
1 29 -0.458779 7.88345 0.217407
1 25 1.36713 7.75148 0.4468
1 24 1.81035 7.63713 0.494368
1 66 -3.90311 -2.90508 0.804348
1 63 -4.60019 -2.30969 0.664595
1 57 -5.74059 -0.67042 0.862604
1 58 -5.5842 -0.984083 0.546904
1 54 -6.10028 0.355857 0.65023
1 1 6 0 0.990403
1 44 -5.72261 4.26098 0.962331
1 16 4.79242 5.71109 0.614466
1 17 4.49319 6.03505 0.658247
1 18 4.16953 6.33906 0.945315
1 32 -1.80965 7.63734 0.832931
1 31 -1.36641 7.75164 0.673984
1 22 2.66302 7.31578 0.609796
1 23 2.24313 7.49155 0.978883
ITEM: TIMESTEP
5000
ITEM: NUMBER OF ATOMS
80
ITEM: BOX BOUNDS ff ff ff
-2.0000000000000000e+01 2.0000000000000000e+01
-2.0000000000000000e+01 2.0000000000000000e+01
-4.0000000000000000e+01 4.0000000000000000e+01
ITEM: ATOMS type id x y z
1 69 -2.80594 -3.68765 -1.23025
1 70 -2.4981 -4.61484 -1.38675
1 68 -3.22991 -2.81122 -1.04276
1 62 -5.64554 -2.2124 -1.60337
1 63 -4.71999 -1.84451 -1.49244
1 60 -5.89087 -1.79653 -0.614056
1 64 -4.20353 -1.20327 -0.936121
1 48 -6.64542 1.87137 -0.465915
1 8 6.35856 1.84797 -0.76869
1 47 -6.68835 2.74524 -0.916795
1 13 5.03401 4.17117 -0.398916
1 11 5.87356 4.18627 -0.931444
1 15 4.4811 5.55598 -0.420098
1 14 4.15867 4.61624 -0.564512
1 25 1.69153 5.73155 -0.208382
1 22 2.66951 5.1348 -1.2671
1 21 3.64998 5.27729 -1.14144
1 31 -0.435933 8.00775 -0.461485
1 26 1.22162 6.61665 -0.163355
1 71 -1.88336 -4.01264 -0.870873
1 72 -2.07005 -3.45928 -0.0581119
1 76 -0.956908 -4.20241 0.50061
1 77 -0.137343 -4.36492 -0.0482195
1 78 0.686791 -4.03015 -0.477845
1 67 -4.13537 -2.97678 -0.662453
1 79 -0.138605 -3.61362 -0.0975128
1 80 0.802799 -3.40857 0.150116
1 61 -6.1748 -2.71141 -0.919171
1 66 -3.73381 -2.32947 -0.0309546
1 65 -3.46994 -1.39582 -0.283657
1 58 -6.01524 -0.58271 0.576881
1 59 -6.2431 -0.898346 -0.340241
1 53 -5.97334 0.8416 -0.241386
1 55 -4.92936 0.741236 0.225871
1 2 5.54133 0.355155 0.44865
1 54 -5.18555 1.36311 -0.509334
1 3 4.74431 0.955883 0.48678
1 7 6.98621 1.54272 -0.0407474
1 51 -6.67061 1.57185 0.297917
1 49 -6.63199 2.40738 0.369122
1 46 -6.80764 3.16059 0.00580869
1 9 5.52203 2.37541 -0.674238
1 43 -4.56442 4.46469 0.0305087
1 44 -5.05142 3.84385 0.64567
1 12 5.76663 4.83974 -0.191188
1 10 5.37587 3.35662 -0.658757
1 42 -5.52268 4.71937 0.0116445
1 40 -4.51992 5.67035 0.107183
1 23 2.3232 5.5359 -0.420945
1 39 -4.07331 6.44376 0.529715
1 33 -1.50475 6.90997 0.787695
1 28 0.205687 6.84981 1.04787
1 27 0.281533 6.88198 0.0539819
1 24 2.28522 6.52323 -0.318117
1 20 3.17229 5.61512 -0.336583
1 16 4.21197 6.12632 0.328491
1 37 -3.41614 7.34471 0.398464
1 32 -0.989414 7.54194 0.21147
1 30 -1.12759 7.37326 -0.124791
1 29 -0.53603 7.38468 0.681491
1 73 -1.69209 -4.24433 0.403479
1 74 -0.719167 -4.1043 0.553762
1 75 -1.19993 -3.34549 0.963106
1 57 -5.32326 -1.2261 0.22994
1 56 -5.06002 -0.261023 0.277112
1 1 6.07083 0.106002 1.25925
1 52 -5.70809 1.42728 0.514761
1 4 5.11839 1.24856 1.3739
1 5 6.02404 1.65324 1.28007
1 6 6.69864 1.0956 0.807182
1 50 -6.91143 1.91902 1.1963
1 45 -5.99797 3.62494 0.36277
1 41 -4.76682 4.87963 0.657118
1 34 -1.89329 6.01328 0.61865
1 19 3.80569 6.0363 0.302034
1 36 -3.46961 6.76849 1.22035
1 35 -2.6715 6.16029 1.23026
1 18 3.22958 6.62024 0.864734
1 17 4.09686 6.36675 1.29016
1 38 -3.77787 7.02455 1.28845
ITEM: TIMESTEP
10000
ITEM: NUMBER OF ATOMS
80
ITEM: BOX BOUNDS ff ff ff
-2.0000000000000000e+01 2.0000000000000000e+01
-2.0000000000000000e+01 2.0000000000000000e+01
-4.0000000000000000e+01 4.0000000000000000e+01
ITEM: ATOMS type id x y z
1 67 -3.38613 -2.71323 -1.84074
1 70 -2.05759 -2.64048 -1.88435
1 69 -2.14656 -1.75422 -1.38426
1 72 -1.74809 -3.79828 -1.08147
1 66 -2.73254 -2.91749 -1.12196
1 71 -1.97676 -3.61516 -2.0227
1 79 0.170154 -3.45426 -0.346257
1 60 -6.16043 -1.33765 -1.26546
1 61 -5.92384 -2.17109 -1.76354
1 63 -4.51882 -2.15962 -0.715979
1 62 -5.04006 -2.52509 -1.47244
1 65 -3.50174 -2.32014 -1.27035
1 68 -3.07292 -1.77444 -1.77027
1 78 0.0329223 -2.76315 -1.04712
1 59 -6.05124 -1.07662 -0.310814
1 64 -4.0149 -1.45814 -1.18959
1 54 -4.67571 0.597017 -1.1107
1 52 -5.59272 0.701833 -0.849216
1 53 -4.90231 1.25731 -0.391201
1 10 4.7344 3.36007 -1.16488
1 9 4.69862 2.39058 -0.985784
1 13 3.94419 4.42046 -0.825584
1 11 4.73835 4.33027 -1.43114
1 23 2.48169 5.58846 -0.615194
1 22 3.33011 5.63003 -1.11987
1 12 4.83218 4.79509 -0.559326
1 73 -1.04685 -3.57002 -0.403716
1 80 0.476781 -3.38045 0.606148
1 76 -0.139899 -2.42252 0.687159
1 77 -0.466183 -2.34764 -0.261275
1 58 -5.57084 -0.676013 0.45441
1 57 -4.78608 -0.0928981 0.712153
1 56 -3.89655 -0.350999 0.390396
1 49 -6.19759 1.79613 -0.208511
1 51 -5.88208 1.33417 -0.148245
1 55 -4.27341 0.316928 -0.238285
1 6 6.74074 1.06113 0.184218
1 47 -6.49141 2.24298 -0.270379
1 48 -6.88478 1.78727 0.520337
1 8 5.40091 2.25903 -0.288392
1 7 5.86928 1.39671 -0.160732
1 46 -6.08413 3.09357 -0.583415
1 45 -5.90288 3.52251 0.286787
1 42 -3.76192 3.64026 -0.515277
1 41 -3.21622 4.48625 -0.424922
1 14 3.41497 4.06034 -0.0605233
1 40 -3.5852 5.41286 -0.350421
1 27 0.147785 5.19805 0.220724
1 24 1.80067 5.14423 -0.050263
1 21 3.38194 5.56242 -0.136281
1 20 3.56506 6.22074 0.585411
1 39 -3.96668 5.9953 0.371289
1 33 -1.73324 5.93569 0.761615
1 32 -0.951746 6.25024 0.211804
1 26 0.58599 6.04428 -0.0636096
1 31 -0.192073 6.75748 0.622714
1 74 -1.19557 -3.52722 0.585056
1 75 -0.648294 -3.04684 1.27311
1 3 5.34888 0.641399 1.11177
1 5 6.37855 1.70374 0.852293
1 50 -5.62022 1.95136 0.58796
1 4 5.4197 1.64092 1.09917
1 44 -4.92292 3.3306 0.317235
1 43 -3.93415 3.14679 0.337227
1 28 -0.459611 5.04111 0.990448
1 15 3.45551 4.344 0.905516
1 16 3.15515 4.35876 1.86767
1 35 -2.65948 5.01865 1.28121
1 34 -1.87821 4.94075 0.662756
1 29 0.018858 5.89554 1.15468
1 25 1.40987 5.89182 0.465983
1 19 3.07595 5.84648 1.37701
1 36 -3.01182 5.96112 1.27613
1 30 -0.318013 6.71273 1.60278
1 38 -4.05621 6.70615 1.07332
1 37 -3.13372 6.9539 1.3377
1 1 6.23359 -0.363434 2.40195
1 2 5.53778 -0.134942 1.70355
1 17 2.34479 4.79947 2.26856
1 18 2.20417 5.675 1.82654
ITEM: TIMESTEP
15000
ITEM: NUMBER OF ATOMS
80
ITEM: BOX BOUNDS ff ff ff
-2.0000000000000000e+01 2.0000000000000000e+01
-2.0000000000000000e+01 2.0000000000000000e+01
-4.0000000000000000e+01 4.0000000000000000e+01
ITEM: ATOMS type id x y z
1 68 -2.53521 -2.95976 -1.48141
1 71 -1.53079 -2.12659 -1.58086
1 11 4.9247 3.95494 -1.89751
1 65 -3.31391 -3.08334 -0.365607
1 67 -1.69899 -3.40599 -1.22093
1 70 -1.41595 -2.82738 -0.889508
1 79 0.569173 -3.39637 -0.823758
1 80 1.32949 -3.9127 -0.442785
1 64 -3.30682 -2.23397 -0.898671
1 69 -2.00852 -2.1298 -1.28115
1 72 -1.22599 -2.5477 -0.730343
1 78 0.560799 -2.40977 -0.835065
1 62 -4.85326 -1.89717 -0.810675
1 63 -3.94719 -1.49228 -0.709514
1 52 -5.36641 1.60361 -1.17896
1 55 -4.49488 0.548971 -0.661032
1 53 -4.92576 1.02932 -1.8726
1 54 -4.26322 0.313109 -1.60484
1 47 -6.19772 2.74591 -0.515512
1 9 4.02156 2.177 -1.93366
1 8 4.70963 1.85011 -1.26453
1 7 5.4042 2.32637 -0.685876
1 46 -5.47173 3.36836 -0.759094
1 45 -4.58715 3.61246 -1.15903
1 10 4.56712 3.02334 -1.98374
1 40 -3.46427 4.51171 -0.465791
1 12 5.27728 3.90825 -0.966431
1 66 -2.35037 -2.94621 -0.582112
1 77 0.171786 -2.51321 0.0724684
1 61 -5.73589 -1.42941 -0.87382
1 73 -1.5198 -2.76834 0.192491
1 60 -5.97352 -0.728051 -0.192602
1 59 -5.40882 0.108429 -0.200984
1 58 -4.59852 -0.329074 0.164172
1 50 -5.79328 1.81272 0.585422
1 56 -3.58071 0.779627 -0.368664
1 48 -6.48973 1.87196 -0.112276
1 49 -6.25687 0.971639 0.272751
1 51 -5.76276 1.34245 -0.29915
1 6 5.50873 1.5008 -0.155012
1 43 -3.76326 3.55856 0.25945
1 44 -4.65619 3.65681 -0.173672
1 42 -3.21583 4.25085 -0.183787
1 39 -4.12781 4.86613 0.202867
1 41 -2.55682 4.92544 -0.532912
1 27 -0.184333 4.64586 0.137552
1 22 2.21077 4.18069 0.0881979
1 14 4.13054 3.17317 0.457033
1 13 4.7327 3.38723 -0.308683
1 34 -0.952618 5.76418 -0.198662
1 26 0.23478 5.36209 -0.427073
1 21 2.37043 5.07233 0.495311
1 25 0.784944 5.62945 0.360974
1 75 -0.882141 -3.79754 0.413337
1 74 -1.32184 -3.20773 1.07784
1 76 -0.317086 -3.05259 0.765339
1 57 -3.65646 -0.191694 -0.170995
1 2 5.0334 0.415231 1.78281
1 5 5.32209 2.19313 0.506558
1 4 5.06447 2.09395 1.46439
1 28 -0.304491 4.00187 0.893777
1 23 1.2828 4.5393 0.244396
1 18 2.34473 4.93615 1.66645
1 15 3.90425 3.99323 0.987069
1 38 -4.13887 5.31298 1.08519
1 37 -3.22988 4.91303 1.06881
1 33 -1.74291 5.57474 0.391165
1 36 -2.42513 5.29397 0.654405
1 32 -1.05994 5.44693 1.10015
1 29 -0.591748 4.19848 1.82707
1 24 0.998532 4.99789 1.10069
1 20 2.34921 5.20184 1.48108
1 19 3.26128 4.83879 1.28038
1 35 -1.48776 5.63154 0.614898
1 1 4.0419 0.446564 1.83001
1 3 5.1142 1.35105 2.11998
1 16 3.26431 3.98469 1.75054
1 17 2.37098 4.06916 2.17928
1 30 -0.12825 5.06653 2.02327
1 31 -0.227175 5.87407 1.47206
ITEM: TIMESTEP
20000
ITEM: NUMBER OF ATOMS
80
ITEM: BOX BOUNDS ff ff ff
-2.0000000000000000e+01 2.0000000000000000e+01
-2.0000000000000000e+01 2.0000000000000000e+01
-4.0000000000000000e+01 4.0000000000000000e+01
ITEM: ATOMS type id x y z
1 10 3.68861 2.39141 -1.44966
1 11 4.03677 3.01686 -2.15264
1 66 -2.68831 -4.05398 -0.966965
1 65 -3.19935 -3.23698 -0.705266
1 67 -1.84987 -3.57262 -1.23542
1 68 -1.56896 -2.76474 -1.75432
1 62 -4.98227 -1.81547 -2.01713
1 63 -4.04969 -1.72495 -1.63476
1 64 -3.65894 -2.57704 -1.27938
1 69 -1.41246 -1.77845 -1.86313
1 70 -0.563462 -2.13923 -1.46526
1 80 0.510529 -1.80823 -1.5215
1 79 0.662434 -1.47173 -0.572031
1 61 -5.27964 -1.33325 -1.18633
1 60 -5.01206 -0.536038 -0.661658
1 54 -3.95703 0.350636 -1.39674
1 55 -3.21458 -0.292898 -1.36746
1 53 -4.83655 0.828504 -1.30287
1 7 4.88619 2.21172 -0.16345
1 9 3.90843 1.42287 -1.47607
1 8 4.0746 1.85365 -0.593799
1 46 -5.1992 2.96765 -0.765114
1 42 -2.48064 4.19674 -0.654926
1 12 4.92852 3.26221 -1.75938
1 13 4.2424 3.46599 -1.0733
1 43 -3.43005 3.97373 -0.475824
1 22 1.6093 5.0591 -0.421467
1 74 -0.65177 -3.20385 0.731431
1 76 -0.0355609 -3.11896 0.564066
1 75 -0.460522 -3.66214 -0.14315
1 71 -1.07299 -1.9756 -0.614905
1 72 -1.3265 -1.68853 0.313398
1 77 0.599393 -2.34362 0.591198
1 78 1.07322 -1.4959 0.326128
1 59 -4.89713 0.231516 -0.0358511
1 58 -4.13994 0.622412 0.469738
1 56 -3.1425 -0.357511 -0.375408
1 57 -3.22321 0.219441 0.420693
1 51 -5.64937 1.24094 -0.312514
1 52 -4.83773 1.63981 -0.725331
1 6 4.85377 1.38714 0.373583
1 47 -5.5673 2.23489 -0.204043
1 27 -0.290809 2.82544 -0.525147
1 45 -5.38608 3.95966 -0.641766
1 28 -0.706658 2.75403 0.367398
1 26 0.429617 3.28944 -0.00233253
1 44 -4.39231 4.08448 -0.701195
1 41 -2.62533 4.04234 0.315324
1 36 -1.65536 4.51427 0.470137
1 25 0.16176 4.1055 0.522973
1 21 1.01256 4.671 0.272145
1 14 4.06918 3.53723 -0.0892954
1 35 -1.18938 5.32659 0.118784
1 23 0.769585 5.29398 -0.911638
1 34 -0.406892 5.97273 0.264414
1 24 0.38606 4.82413 -0.140397
1 73 -1.46492 -2.617 0.679791
1 5 4.11362 1.11288 0.979096
1 50 -5.50153 1.62751 0.607502
1 48 -5.4214 1.79332 0.678144
1 29 -0.470589 3.16866 1.24254
1 16 3.36174 2.79285 1.52171
1 15 3.97879 3.24161 0.871285
1 40 -3.14231 4.84972 0.577115
1 30 -0.827862 4.1096 1.26441
1 20 1.86778 4.87906 0.743419
1 39 -3.49583 5.76561 0.713427
1 38 -2.5606 6.13857 0.77653
1 37 -2.39448 5.19754 0.50585
1 33 -0.700256 5.50441 1.12044
1 19 2.38741 4.21075 1.28979
1 4 4.59618 0.611403 1.69303
1 1 3.83496 0.629935 2.66486
1 49 -5.9291 1.56098 1.51308
1 17 2.6659 3.53658 1.52779
1 18 2.99587 4.30498 2.07656
1 31 -0.469372 4.79805 1.88814
1 32 -1.39846 5.00409 1.61774
1 2 4.54571 0.566718 3.38753
1 3 5.08157 0.498036 2.54796
ITEM: TIMESTEP
25000
ITEM: NUMBER OF ATOMS
80
ITEM: BOX BOUNDS ff ff ff
-2.0000000000000000e+01 2.0000000000000000e+01
-2.0000000000000000e+01 2.0000000000000000e+01
-4.0000000000000000e+01 4.0000000000000000e+01
ITEM: ATOMS type id x y z
1 69 -1.27407 -2.75838 -2.23938
1 70 -1.36641 -2.4736 -1.2798
1 62 -5.25574 -0.739814 -1.88126
1 63 -4.35477 -1.05474 -2.2098
1 64 -3.41024 -1.0192 -1.87556
1 11 2.64936 2.81755 -1.55228
1 68 -1.53372 -3.38835 -1.50113
1 67 -1.83754 -2.66984 -0.871998
1 65 -3.32944 -1.50004 -1.01871
1 66 -2.42999 -1.90117 -1.10623
1 79 0.923833 -2.37069 -1.08647
1 61 -5.55467 -0.80991 -0.925001
1 71 -1.30145 -1.46953 -1.30397
1 80 -0.0192665 -2.0344 -1.0765
1 54 -4.28091 -0.118624 -1.49777
1 55 -3.57167 -0.418901 -0.837061
1 56 -2.58766 -0.44681 -0.880963
1 52 -5.06967 1.52197 -0.909189
1 53 -4.46503 0.853214 -1.36498
1 9 3.57763 1.46371 -0.66982
1 10 3.4237 2.3195 -1.16377
1 45 -4.36063 3.49462 -0.825559
1 24 0.472895 3.66577 -0.93573
1 12 3.57951 2.93449 -1.2298
1 13 4.21644 3.23401 -0.516118
1 22 1.88635 4.53766 -0.912759
1 36 -1.21817 5.32437 -0.670854
1 35 -0.393601 4.83936 -0.363829
1 77 0.581062 -3.35929 -0.152452
1 72 -1.15163 -1.66429 -0.326651
1 78 0.324459 -2.41377 -0.294863
1 60 -5.48679 -0.50851 0.0324572
1 59 -4.60286 -0.749941 0.426921
1 57 -3.04437 -0.122411 -0.0514496
1 49 -5.0345 1.53738 -0.275546
1 50 -4.97043 1.68908 0.710315
1 51 -5.07764 1.04065 -0.0336736
1 8 3.29137 0.572769 -0.299007
1 48 -5.44082 2.04794 0.466105
1 46 -4.35448 2.86365 -0.0483565
1 27 -0.182947 2.69739 -0.278297
1 26 0.77145 2.45095 -0.189668
1 14 4.16055 2.91901 0.431465
1 25 1.18436 2.97136 -0.943626
1 15 3.61778 3.68013 0.811643
1 44 -4.29744 3.29646 0.171466
1 43 -3.40501 3.75042 0.165195
1 41 -2.63896 4.07938 0.0687592
1 23 0.93652 4.49807 -0.606873
1 21 2.83253 4.28378 -0.718891
1 20 2.98102 4.22354 0.269123
1 38 -2.52951 4.74308 0.547356
1 40 -2.85489 5.01668 -0.20884
1 37 -2.01751 5.31337 -0.0756808
1 39 -1.92268 5.30521 -0.00116333
1 34 -0.312119 4.97744 0.629945
1 75 -0.339536 -3.55873 1.43072
1 76 0.356796 -3.72362 0.743212
1 74 -0.670698 -3.13563 0.584264
1 73 -1.02503 -2.21104 0.519183
1 58 -3.63985 -0.594437 0.599764
1 7 3.95036 0.520822 0.4456
1 6 3.37068 0.993331 1.12394
1 47 -5.35365 2.83815 -0.119105
1 42 -2.6881 3.30394 0.716606
1 28 -0.288021 3.12447 0.632534
1 29 -1.22103 2.88762 0.881888
1 31 -0.146417 4.00905 1.88648
1 30 -0.782832 3.74897 1.15522
1 16 3.00448 3.1493 1.3897
1 19 2.55096 4.48109 1.12639
1 33 0.123775 5.71207 1.17448
1 5 3.42163 1.71538 1.80494
1 3 4.70185 1.33133 2.73992
1 4 3.96252 2.00772 2.60502
1 17 3.38051 3.9365 1.88382
1 32 -0.348231 4.92826 1.60603
1 18 2.43487 3.65646 1.67324
1 2 4.27913 0.648695 3.32923
1 1 4.20314 -0.203822 3.81781
ITEM: TIMESTEP
30000
ITEM: NUMBER OF ATOMS
80
ITEM: BOX BOUNDS ff ff ff
-2.0000000000000000e+01 2.0000000000000000e+01
-2.0000000000000000e+01 2.0000000000000000e+01
-4.0000000000000000e+01 4.0000000000000000e+01
ITEM: ATOMS type id x y z
1 68 -2.28672 -3.17472 -2.0951
1 69 -1.3001 -3.30157 -2.07201
1 63 -3.32001 -2.29447 -1.92623
1 66 -2.75255 -2.31494 -1.92354
1 67 -2.09009 -2.39141 -2.66688
1 65 -1.87841 -1.9229 -2.21977
1 64 -2.68635 -2.26423 -2.6939
1 55 -2.76089 0.20372 -2.01799
1 11 2.42302 2.63977 -1.67314
1 70 -1.57708 -2.67179 -1.34937
1 78 0.725916 -2.44723 -0.812005
1 62 -4.17439 -2.34391 -1.3919
1 60 -3.68149 -2.17403 -1.07233
1 71 -2.19673 -2.15999 -0.784942
1 79 1.41388 -2.04138 -1.40834
1 61 -3.99161 -1.39325 -1.59409
1 80 1.16624 -1.08192 -1.48694
1 54 -3.38602 -0.580809 -2.01498
1 53 -4.23956 -0.0835107 -1.81568
1 56 -2.54113 0.547452 -1.11115
1 52 -4.3456 0.511918 -1.02049
1 9 2.77203 2.0127 -1.0259
1 10 3.26658 2.13105 -1.88579
1 45 -3.84764 2.41648 0.529393
1 24 0.698352 3.38084 -0.0832907
1 25 1.04619 3.34209 -1.03893
1 12 2.95799 2.89467 -0.881489
1 22 1.3911 4.55573 -0.823311
1 74 -0.413204 -3.55922 0.261959
1 77 1.14134 -2.49583 0.103307
1 73 -1.17876 -2.96821 0.0909323
1 72 -1.83796 -2.20791 0.150781
1 59 -3.16382 -1.67926 -0.38009
1 58 -3.52819 -0.753805 -0.335684
1 57 -2.74496 -0.387216 -0.840767
1 50 -4.75778 1.2983 0.435437
1 51 -4.05611 0.863931 -0.120944
1 8 2.90889 1.12481 -0.573824
1 7 3.01092 0.51948 0.20065
1 49 -5.76088 1.2594 0.470225
1 47 -5.1106 3.03599 0.182402
1 46 -4.54435 2.31662 -0.174823
1 26 1.15728 2.97239 -0.118882
1 14 2.02492 2.71172 0.653283
1 44 -4.57128 3.04801 0.234833
1 13 2.30132 2.49767 -0.2707
1 23 0.930202 4.33949 0.0491802
1 21 2.31885 4.33062 -0.528724
1 20 2.69491 3.8998 0.290346
1 19 2.99195 4.49032 1.01724
1 35 -1.27948 5.08646 0.0130093
1 36 -1.5008 6.06481 0.112103
1 75 0.0492572 -3.72331 1.13011
1 76 0.78015 -3.157 0.783892
1 6 2.92772 0.160244 1.14846
1 5 3.28558 1.02036 1.51511
1 48 -5.67629 2.20799 0.174348
1 29 0.148133 3.02162 1.89584
1 27 0.738493 2.76076 0.784422
1 43 -3.86018 3.47231 0.815479
1 42 -2.89833 3.69523 0.679884
1 28 0.681008 3.63282 1.29271
1 30 -0.341824 3.89306 1.90461
1 15 2.58643 2.64724 1.49316
1 16 2.9924 3.51407 1.29379
1 41 -2.37242 4.52655 0.773412
1 34 -0.855612 5.25335 0.910244
1 18 3.90242 4.24469 1.31952
1 39 -2.99471 6.02763 1.41624
1 37 -1.74302 5.38779 0.80101
1 38 -2.35872 6.1808 0.662074
1 4 3.67298 1.11039 2.43385
1 3 4.1401 1.83689 2.94894
1 31 -1.25219 3.47467 2.04035
1 32 -0.443415 4.00066 1.77502
1 17 3.44272 3.86829 2.11926
1 40 -2.31062 5.30456 1.4128
1 33 -1.25217 4.48747 1.42848
1 1 5.19135 0.456206 3.09361
1 2 4.41231 0.910402 2.66258
ITEM: TIMESTEP
35000
ITEM: NUMBER OF ATOMS
80
ITEM: BOX BOUNDS ff ff ff
-2.0000000000000000e+01 2.0000000000000000e+01
-2.0000000000000000e+01 2.0000000000000000e+01
-4.0000000000000000e+01 4.0000000000000000e+01
ITEM: ATOMS type id x y z
1 66 -2.43967 -1.54131 -2.21788
1 63 -3.51586 -0.711851 -2.56871
1 68 -2.32497 -3.09557 -1.82758
1 67 -2.97892 -2.34934 -1.93001
1 80 2.61032 -1.49403 -1.7671
1 62 -3.62875 -1.34259 -1.80025
1 64 -2.56939 -0.420496 -2.36619
1 65 -1.71566 -0.91518 -2.50465
1 10 2.36825 2.28933 -2.13238
1 69 -1.84018 -2.87601 -0.972473
1 78 1.55356 -2.81306 -0.903643
1 61 -3.72895 -1.78734 -0.902797
1 70 -1.91011 -1.94853 -0.61451
1 79 2.34739 -2.28052 -1.19759
1 54 -2.77719 -0.303523 -1.32759
1 53 -2.86959 0.559014 -0.820592
1 8 1.99543 0.985145 -0.770151
1 25 1.20453 2.16012 -0.946743
1 12 2.74642 2.75045 -0.455413
1 9 2.12002 1.84902 -1.25517
1 11 2.89499 2.80356 -1.44473
1 24 0.923052 3.08289 -1.18149
1 23 0.685011 3.59148 -0.36014
1 21 2.18921 4.20736 -0.161694
1 36 -2.13812 4.61883 -1.04991
1 35 -1.56432 5.18091 -0.426859
1 72 -1.7721 -3.17977 0.285592
1 73 -0.9742 -3.6779 -0.0637497
1 74 -0.340941 -3.1375 -0.616591
1 77 0.668316 -3.29402 -0.836967
1 60 -3.68245 -1.20707 -0.0831599
1 71 -1.79459 -2.19168 0.347815
1 76 -0.209236 -3.38911 -0.38584
1 55 -2.24076 -0.511865 -0.512162
1 57 -2.65738 -0.248517 0.741469
1 56 -2.73866 -1.07361 0.170624
1 52 -3.74251 0.995694 -0.632574
1 51 -3.71986 1.75304 0.00896222
1 7 2.97044 0.746291 -0.716928
1 6 3.41457 0.716171 0.164942
1 49 -5.16974 2.45032 0.407329
1 50 -4.70892 1.74951 -0.140137
1 26 1.01657 2.65584 -0.11527
1 13 3.38793 2.42838 0.230358
1 43 -4.21541 3.13867 0.803333
1 38 -1.88215 4.35371 0.400518
1 37 -1.64221 3.96676 -0.489221
1 22 1.22409 4.29386 0.0997073
1 20 3.09687 3.8153 -0.0653812
1 19 4.03579 3.70957 -0.400306
1 34 -0.746819 5.55069 0.0253102
1 33 -0.017809 5.12425 0.561973
1 75 -0.876833 -2.97816 0.224158
1 59 -3.22122 -1.62148 0.706289
1 58 -2.33026 -1.18681 0.867916
1 5 2.917 0.561624 0.998744
1 45 -4.94791 1.68558 1.27422
1 46 -4.58104 2.59568 1.11749
1 44 -4.1276 2.25647 1.29147
1 28 0.16746 2.13254 1.30768
1 14 2.8945 2.28685 1.09667
1 47 -5.31905 2.76889 0.464828
1 48 -5.42121 2.36254 1.36988
1 42 -3.32744 3.5128 0.5138
1 27 0.395522 2.84597 0.640377
1 17 3.22137 3.34454 1.23216
1 41 -3.32764 4.42994 0.929621
1 32 -0.156399 5.02897 1.53651
1 18 3.91714 3.65265 0.58241
1 39 -2.69766 4.86375 0.620362
1 4 3.43137 0.584783 1.86065
1 3 4.22062 1.11234 2.16122
1 29 -0.0534922 2.61198 2.14505
1 15 2.15984 2.15374 1.74979
1 30 -0.767592 3.30964 2.18977
1 16 2.30208 2.96053 1.18059
1 31 -0.362113 4.05133 1.66948
1 40 -2.52872 4.45632 1.51412
1 1 5.40067 0.718936 2.2921
1 2 4.54967 0.203203 2.44957
ITEM: TIMESTEP
40000
ITEM: NUMBER OF ATOMS
80
ITEM: BOX BOUNDS ff ff ff
-2.0000000000000000e+01 2.0000000000000000e+01
-2.0000000000000000e+01 2.0000000000000000e+01
-4.0000000000000000e+01 4.0000000000000000e+01
ITEM: ATOMS type id x y z
1 66 -2.4028 -2.03323 -3.35
1 65 -2.7768 -1.15155 -3.04199
1 64 -2.22911 -0.351821 -2.79053
1 67 -2.53977 -1.64651 -2.43765
1 68 -1.76864 -1.28477 -1.91674
1 63 -2.50503 -0.185585 -1.8374
1 72 -1.42 -3.20818 -1.24444
1 73 -0.61295 -3.71808 -0.971708
1 76 -0.768606 -2.72423 -0.342097
1 77 0.107782 -2.90027 -0.763771
1 74 0.138658 -3.17204 -0.660217
1 69 -1.46574 -2.21046 -1.82159
1 71 -1.50694 -2.27065 -0.884071
1 78 0.895746 -2.28287 -0.846432
1 79 1.88974 -2.13373 -0.8983
1 80 2.47673 -1.39383 -1.19399
1 62 -2.71126 -0.67929 -0.998828
1 61 -2.19241 -1.52382 -0.931025
1 70 -0.796999 -1.69882 -1.29664
1 8 1.77568 1.23523 -0.843978
1 7 2.73718 0.948322 -0.753417
1 50 -5.22996 1.92912 -0.536779
1 51 -4.2524 1.89025 -0.788128
1 24 0.646012 2.48011 -1.40705
1 9 2.35666 1.93245 -1.24918
1 10 2.51919 2.92555 -1.28061
1 12 3.64141 2.4838 -0.519911
1 11 3.48264 2.78797 -1.46225
1 37 -2.69597 3.35113 -1.12206
1 36 -1.73927 3.37049 -0.876603
1 21 1.67513 3.70856 -1.00542
1 20 2.47878 4.31134 -0.944651
1 75 0.00353464 -2.91232 0.283645
1 60 -2.909 -1.30145 -0.262424
1 59 -2.40612 -1.18173 0.593682
1 54 -2.95117 0.0674442 0.899196
1 55 -2.01374 0.239545 0.583164
1 49 -5.28661 1.83022 0.469724
1 53 -2.9644 0.732002 0.131904
1 52 -3.47967 1.39851 -0.407196
1 6 3.27304 1.03536 0.0684394
1 48 -4.84022 2.35633 -0.247958
1 26 -0.0241738 2.42472 -0.030555
1 25 0.274183 1.8159 -0.764503
1 13 2.89392 2.32049 0.116631
1 38 -2.65064 3.35483 -0.111109
1 23 0.834926 2.81846 -0.495545
1 22 1.7448 3.11277 -0.190454
1 35 -1.32164 3.78716 -0.0606121
1 34 -0.404208 3.77885 0.366489
1 19 3.21739 4.54922 -0.30256
1 18 2.92611 3.86378 0.364507
1 58 -2.07289 -0.992919 1.53189
1 56 -1.70086 -0.668887 0.89344
1 5 2.65224 0.862709 0.834082
1 1 3.14596 1.34546 1.65027
1 45 -3.48223 1.63335 0.890264
1 44 -3.73259 1.47251 1.84702
1 27 -0.545734 1.93535 0.673338
1 15 1.18388 2.29167 0.998171
1 14 2.13558 2.42744 0.75218
1 47 -3.98546 2.14453 0.238825
1 40 -1.69287 3.30532 0.997196
1 16 2.05129 2.79384 1.00408
1 17 2.92425 3.27464 1.1668
1 39 -2.50536 3.79744 0.773921
1 41 -1.8806 3.65536 1.90819
1 33 -0.0308886 4.1935 1.19525
1 57 -1.65664 -0.100517 1.71129
1 4 2.95562 0.264295 1.57255
1 2 2.85105 0.45651 1.98774
1 3 3.78791 0.755482 1.83147
1 46 -4.0415 2.40648 1.20698
1 43 -2.92923 2.01049 2.135
1 29 -0.606359 1.82056 2.63505
1 28 -0.442276 1.72212 1.64763
1 42 -2.58221 2.9296 1.89954
1 30 -0.404258 2.80238 2.62727
1 31 -0.133145 3.75934 2.57866
1 32 0.250526 4.55459 2.09522
ITEM: TIMESTEP
45000
ITEM: NUMBER OF ATOMS
80
ITEM: BOX BOUNDS ff ff ff
-2.0000000000000000e+01 2.0000000000000000e+01
-2.0000000000000000e+01 2.0000000000000000e+01
-4.0000000000000000e+01 4.0000000000000000e+01
ITEM: ATOMS type id x y z
1 66 -2.80034 -1.69275 -3.59443
1 67 -2.44971 -0.751953 -3.63967
1 65 -2.72022 -0.70205 -3.46074
1 64 -3.20422 -0.836806 -2.59944
1 72 -1.22895 -2.89253 -1.88671
1 71 -1.11471 -1.97921 -2.27279
1 68 -2.00437 -0.30805 -2.87411
1 69 -1.29292 -0.91864 -2.50498
1 70 -0.376876 -1.32291 -2.30003
1 63 -2.76486 -0.384671 -1.83961
1 73 -0.751022 -2.71505 -1.04011
1 74 -0.692276 -2.98739 -0.0711139
1 78 1.38106 -2.93763 -1.11273
1 79 1.73192 -1.99467 -1.13901
1 62 -2.35816 -0.591271 -0.960023
1 7 1.56644 -0.203163 -0.730842
1 8 1.29326 0.779379 -0.816961
1 51 -4.42395 2.22624 -0.700778
1 9 1.7684 1.48318 -1.33924
1 10 2.75455 1.57371 -1.489
1 11 3.34657 1.73586 -0.70203
1 35 -0.959475 3.38546 -0.645256
1 25 1.33452 3.06124 -0.687728
1 20 2.27334 3.60261 -0.783055
1 21 1.89921 4.33996 -0.195883
1 75 0.174762 -3.13637 0.410756
1 76 0.222115 -3.45372 -0.524827
1 77 0.650825 -3.53808 -1.43539
1 80 2.37779 -1.96573 -0.372717
1 60 -2.43043 -1.72076 -0.644537
1 61 -2.01073 -0.971665 -0.112492
1 58 -1.58665 -1.10591 1.00588
1 5 3.32622 -0.495508 -0.00649494
1 6 2.34412 -0.322114 -0.131093
1 53 -3.83041 0.880377 0.0166139
1 52 -4.54515 1.22797 -0.577353
1 12 3.39141 1.12993 0.100996
1 50 -4.98145 2.12423 0.125456
1 27 -0.327572 2.52755 -0.484493
1 13 2.64294 1.72747 0.401013
1 38 -2.96268 3.94797 -0.125191
1 37 -2.65083 3.0789 0.268887
1 36 -1.86867 3.12271 -0.329459
1 34 -0.97545 3.87188 0.236473
1 26 0.492734 3.00318 -0.150828
1 23 1.72247 3.26888 0.174666
1 24 2.18351 2.61772 -0.414924
1 39 -2.63073 3.53452 0.719802
1 22 1.66397 4.09984 0.73681
1 19 2.8358 4.03339 -0.0653069
1 56 -2.84148 -0.428259 1.57828
1 59 -2.15469 -1.50024 0.282625
1 57 -2.21855 -1.17942 1.78634
1 54 -3.14925 0.533672 0.658182
1 55 -2.28243 0.281944 1.12596
1 4 3.77424 0.0804059 0.706437
1 28 -0.101188 1.78482 0.175603
1 29 -0.00599299 1.97008 1.14556
1 49 -4.66165 2.68509 0.898859
1 48 -4.4507 2.00645 1.62382
1 46 -3.25734 1.46944 1.09774
1 15 2.2206 2.4867 1.84199
1 14 2.62511 2.58491 0.926297
1 47 -4.0305 2.00266 0.719119
1 40 -1.9976 2.99011 1.23294
1 33 -0.471038 3.73724 1.10636
1 16 3.04019 2.64286 1.29879
1 18 3.09383 3.96439 0.923975
1 3 3.11468 0.646747 1.20853
1 45 -3.20108 0.916118 1.92313
1 2 2.38643 1.31862 1.29437
1 1 2.68631 0.918676 2.15043
1 44 -2.35268 1.33468 2.2712
1 43 -1.721 1.88728 1.72942
1 30 -0.236417 2.08825 2.11008
1 42 -1.69304 2.68068 2.34322
1 41 -2.60329 2.97006 2.05009
1 31 -0.568785 3.01893 2.1529
1 17 2.41619 3.42493 1.42214
1 32 -0.594351 4.01252 2.04996
ITEM: TIMESTEP
50000
ITEM: NUMBER OF ATOMS
80
ITEM: BOX BOUNDS ff ff ff
-2.0000000000000000e+01 2.0000000000000000e+01
-2.0000000000000000e+01 2.0000000000000000e+01
-4.0000000000000000e+01 4.0000000000000000e+01
ITEM: ATOMS type id x y z
1 71 -0.421052 -1.9226 -2.56142
1 67 -2.20276 -0.866 -3.56531
1 70 -0.633065 -1.40921 -3.39492
1 69 -0.77608 -0.416329 -3.35771
1 65 -2.79113 -0.300268 -3.42041
1 68 -1.69606 -0.121233 -3.11155
1 66 -1.88258 0.0864087 -3.50521
1 72 -0.541665 -2.86523 -2.21472
1 64 -2.71823 -1.29903 -3.39121
1 63 -2.47964 -1.47692 -2.43561
1 62 -1.94029 -1.24525 -1.63416
1 22 1.89054 3.71509 -1.52743
1 73 -1.01476 -2.85916 -1.33816
1 61 -2.80993 -0.790356 -1.49786
1 60 -2.46978 -1.09575 -0.611846
1 8 1.38644 0.753202 -0.421945
1 9 2.19855 0.519248 -0.906842
1 10 1.93442 1.42447 -0.568066
1 24 0.531222 2.67289 -1.2926
1 26 -0.325228 3.24119 -0.495637
1 25 0.615853 2.92846 -0.327722
1 23 1.51588 2.80226 -1.37846
1 21 0.893462 3.7595 -1.49214
1 20 1.65066 4.05616 -0.913959
1 74 -1.66865 -3.03567 -0.616123
1 75 -1.1935 -2.82399 0.233347
1 76 -0.27798 -3.23919 0.19518
1 77 0.695206 -3.12214 0.0481866
1 78 1.53148 -3.62035 0.248603
1 79 2.5311 -3.46948 0.279227
1 59 -2.42603 -1.28763 0.372817
1 54 -2.50196 0.0964573 -0.25563
1 55 -2.1008 -0.297824 0.56292
1 6 2.40864 -0.132707 0.114625
1 7 2.38682 0.776263 -0.324963
1 53 -2.87646 0.864554 -0.761628
1 12 2.77819 1.67085 0.706239
1 52 -2.82523 1.81825 -1.04
1 51 -2.97312 2.42303 -0.240482
1 27 -0.157286 2.24064 -0.548369
1 28 -0.566673 1.91316 0.29192
1 11 2.77971 1.84599 -0.269057
1 50 -3.62372 2.75696 0.447418
1 36 -2.17334 3.36472 0.140005
1 19 2.38113 3.47196 -0.542052
1 17 2.9021 3.50934 0.408386
1 18 1.90973 3.56348 0.35139
1 80 3.15225 -3.64211 1.05135
1 58 -2.27232 -1.31385 1.37654
1 56 -1.59179 -0.722154 1.3211
1 5 3.0264 -0.0551517 0.88817
1 4 3.74741 0.570672 1.21213
1 48 -3.77958 1.59263 1.68898
1 47 -2.89156 1.15069 1.68358
1 3 3.39433 1.14178 1.95652
1 49 -4.23134 2.20671 1.04053
1 39 -2.55787 2.40813 0.679029
1 42 -1.765 1.71991 0.660928
1 29 -0.174046 2.77235 0.621812
1 13 2.00556 2.2944 0.796154
1 15 2.72566 2.33407 1.97622
1 38 -2.79368 2.9473 1.48611
1 40 -2.96629 3.13252 1.2208
1 35 -2.07877 4.19221 0.699169
1 34 -1.48319 3.43306 1.00465
1 16 2.81691 2.90628 1.16434
1 37 -2.98279 3.54821 0.711202
1 57 -1.41285 -1.54149 1.8304
1 2 2.92232 0.2458 1.9699
1 45 -2.78418 1.10152 2.18983
1 46 -2.08297 1.7195 1.84802
1 44 -1.93385 1.63148 2.13706
1 43 -1.33004 2.09611 1.4734
1 30 -0.349062 1.87766 1.06212
1 31 -0.280739 2.6604 1.69707
1 14 1.74924 2.28744 1.75232
1 41 -2.20122 2.61372 0.807887
1 33 -1.63884 3.50098 1.9929
1 32 -0.632138 3.50199 2.11448
1 1 3.25623 -0.318563 2.71854
ITEM: TIMESTEP
55000
ITEM: NUMBER OF ATOMS
80