ITEM: TIMESTEP
0
ITEM: NUMBER OF ATOMS
80
ITEM: BOX BOUNDS ff ff ff
-2.0000000000000000e+01 2.0000000000000000e+01
-2.0000000000000000e+01 2.0000000000000000e+01
-4.0000000000000000e+01 4.0000000000000000e+01
ITEM: ATOMS type id x y z
1 80 -0.47803 -4.085 -0.596936
1 68 -3.41634 -3.2224 -0.611913
1 69 -3.16955 -3.35875 -0.648425
1 73 -2.1778 -3.77099 -0.568829
1 61 -5.02787 -1.82941 -0.957158
1 62 -4.81868 -2.07798 -0.716046
1 8 6.20031 2.67447 -0.837081
1 10 6.01891 3.47489 -0.955271
1 45 -5.88504 3.87129 -0.762589
1 42 -5.31235 5.01265 -0.640086
1 14 5.31272 5.01207 -0.589197
1 28 0.000365982 7.9 -0.815824
1 26 0.915977 7.83377 -0.881388
1 21 3.06772 7.1111 -0.656768
1 74 -1.93131 -3.84435 -0.248517
1 75 -1.68601 -3.90724 0.055985
1 76 -1.44201 -3.96031 -0.301562
1 77 -1.19933 -4.00414 0.528027
1 78 -0.957883 -4.03925 0.220752
1 79 -0.717522 -4.06609 0.47652
1 65 -4.14107 -2.72297 -0.228425
1 67 -3.66117 -3.07138 -0.34613
1 70 -2.92166 -3.48107 -0.317396
1 71 -2.67337 -3.59006 0.364029
1 72 -2.42527 -3.68646 -0.0118263
1 64 -4.37386 -2.52462 -0.393429
1 59 -5.41222 -1.28215 -0.253526
1 60 -5.22624 -1.56406 -0.428295
1 55 -6.00018 0.000555938 0.19117
1 56 -5.87977 -0.341901 -0.088372
1 2 6.10013 0.355282 -0.0717076
1 51 -6.26466 1.48532 -0.359713
1 52 -6.23383 1.09976 -0.0922737
1 53 -6.17862 0.722736 -0.111947
1 3 6.17851 0.722143 -0.0629778
1 4 6.23376 1.09915 0.0307284
1 5 6.26463 1.4847 0.259797
1 48 -6.20022 2.6751 -0.353784
1 49 -6.24875 2.27494 0.205573
1 50 -6.26996 1.87768 -0.395057
1 6 6.26997 1.87705 -0.0348432
1 7 6.24881 2.27431 -0.0153736
1 46 -6.01872 3.47553 0.384527
1 47 -6.12369 3.07604 0.272497
1 9 6.12383 3.0754 0.494996
1 43 -5.53158 4.64223 0.470128
1 11 5.88528 3.87066 0.0514697
1 12 5.72289 4.26036 -0.100827
1 13 5.53191 4.64163 -0.0799878
1 41 -5.06554 5.36989 -0.0145083
1 40 -4.79196 5.71162 0.482214
1 15 5.06595 5.36933 -0.377146
1 37 -3.82234 6.62144 0.449381
1 38 -4.16899 6.33952 -0.384462
1 39 -4.49269 6.03555 0.203044
1 36 -3.45442 6.87935 -0.128019
1 20 3.45502 6.87896 -0.453413
1 19 3.82291 6.62101 -0.0358324
1 35 -3.06709 7.11145 -0.15525
1 33 -2.24245 7.4918 0.495494
1 34 -2.66237 7.31608 0.0564417
1 30 -0.915254 7.83388 -0.0755936
1 27 0.459509 7.8834 -0.218347
1 29 -0.458779 7.88345 0.217407
1 25 1.36713 7.75148 0.4468
1 24 1.81035 7.63713 0.494368
1 66 -3.90311 -2.90508 0.804348
1 63 -4.60019 -2.30969 0.664595
1 57 -5.74059 -0.67042 0.862604
1 58 -5.5842 -0.984083 0.546904
1 54 -6.10028 0.355857 0.65023
1 1 6 0 0.990403
1 44 -5.72261 4.26098 0.962331
1 16 4.79242 5.71109 0.614466
1 17 4.49319 6.03505 0.658247
1 18 4.16953 6.33906 0.945315
1 32 -1.80965 7.63734 0.832931
1 31 -1.36641 7.75164 0.673984
1 22 2.66302 7.31578 0.609796
1 23 2.24313 7.49155 0.978883
ITEM: TIMESTEP
5000
ITEM: NUMBER OF ATOMS
80
ITEM: BOX BOUNDS ff ff ff
-2.0000000000000000e+01 2.0000000000000000e+01
-2.0000000000000000e+01 2.0000000000000000e+01
-4.0000000000000000e+01 4.0000000000000000e+01
ITEM: ATOMS type id x y z
1 70 -2.76599 -4.45613 -1.31227
1 71 -2.06588 -4.16738 -0.675819
1 69 -2.90019 -3.49528 -1.51466
1 68 -2.77762 -3.05778 -0.619049
1 65 -4.26801 -2.27405 -0.84644
1 66 -3.28227 -2.38611 -0.955631
1 62 -5.97426 -1.18552 -1.48226
1 61 -5.12197 -1.44516 -1.03466
1 53 -5.16611 0.853684 -0.410051
1 8 5.94736 2.17946 -1.15126
1 14 4.63695 4.4987 -0.955462
1 15 4.44874 5.44572 -0.709101
1 26 0.738944 6.82773 -0.953607
1 22 2.174 7.16029 -0.701623
1 78 1.18908 -5.41926 -0.0580286
1 77 0.208706 -5.348 0.108122
1 72 -1.6071 -4.83329 -0.0645549
1 79 1.22802 -4.46184 -0.376107
1 80 1.27959 -3.65304 0.232019
1 63 -6.10157 -2.05179 -0.995378
1 64 -5.20087 -2.04029 -0.587088
1 67 -3.12766 -2.39771 0.033965
1 58 -6.66847 -0.229808 -0.289322
1 59 -5.84243 -0.770168 -0.439372
1 60 -4.90308 -0.940264 -0.184626
1 57 -6.37796 -0.121913 0.657582
1 2 4.79816 -0.578894 -0.0870156
1 52 -6.15344 0.93652 -0.265296
1 49 -5.46643 1.91108 0.135869
1 54 -4.34317 0.976965 0.11792
1 3 5.12652 0.294854 0.277883
1 47 -7.12756 2.61965 -0.605306
1 48 -6.273 2.15204 -0.388091
1 7 5.67114 2.2372 -0.195565
1 6 6.45186 1.7019 0.126136
1 46 -6.66909 3.45118 -0.301207
1 45 -5.78108 3.6058 0.127201
1 9 6.43245 2.26951 -0.270309
1 11 5.83462 3.55699 0.661011
1 44 -5.1989 4.36683 0.421392
1 13 4.90715 4.52628 0.0204831
1 12 5.04443 3.5406 0.039582
1 43 -5.40714 5.32271 0.531288
1 42 -5.02778 6.1658 0.117592
1 41 -4.08984 5.90094 -0.0949037
1 37 -3.46132 6.22787 -0.69322
1 36 -3.16538 5.39779 -0.245475
1 25 1.02836 6.17404 -0.254441
1 24 1.59993 6.89458 0.160829
1 19 2.51218 5.55144 0.676275
1 20 2.93189 6.22379 0.0602498
1 16 4.81752 5.52249 0.214682
1 38 -3.45456 6.90441 0.0394922
1 30 -0.886186 8.14178 0.692161
1 29 -0.675967 7.8317 -0.226034
1 28 0.173054 7.44359 0.128139
1 27 0.702475 7.75049 -0.642435
1 23 1.95081 7.83111 -0.0140004
1 21 2.79351 7.21813 0.0653605
1 73 -1.70982 -4.34509 0.798138
1 76 -0.604709 -4.78238 0.277904
1 75 -1.0322 -3.95362 -0.102339
1 74 -1.10659 -3.55459 0.810621
1 1 4.74567 -1.55014 -0.286086
1 56 -5.47457 0.15625 1.0074
1 51 -6.38705 1.24207 0.673076
1 55 -4.69042 0.782383 1.03369
1 4 5.9439 0.620712 0.749339
1 5 6.76567 1.17904 0.910477
1 50 -5.73426 1.86639 1.10497
1 10 5.91816 2.58292 0.501633
1 35 -3.24516 5.47632 0.736796
1 39 -4.2089 7.0296 0.683109
1 40 -4.33836 6.05188 0.864292
1 34 -2.52296 6.15776 0.694607
1 33 -1.87861 6.83219 1.04466
1 32 -0.902773 6.68168 1.09495
1 18 3.35616 5.97176 1.04212
1 17 4.33451 5.78089 1.06288
1 31 -0.851875 7.58125 1.52252
ITEM: TIMESTEP
10000
ITEM: NUMBER OF ATOMS
80
ITEM: BOX BOUNDS ff ff ff
-2.0000000000000000e+01 2.0000000000000000e+01
-2.0000000000000000e+01 2.0000000000000000e+01
-4.0000000000000000e+01 4.0000000000000000e+01
ITEM: ATOMS type id x y z
1 70 -2.55936 -2.50528 -2.44505
1 69 -3.10069 -2.7193 -1.62164
1 71 -1.82353 -2.90423 -1.90419
1 63 -6.14344 -1.51561 -1.86084
1 62 -5.2031 -1.75392 -2.07198
1 61 -4.31233 -1.34785 -2.24845
1 72 -0.917524 -2.70802 -1.51103
1 64 -5.47865 -2.07909 -1.3861
1 65 -4.66559 -2.11759 -0.800799
1 68 -2.82194 -2.83872 -0.654178
1 60 -4.14347 -1.29967 -1.27746
1 48 -6.32114 0.987124 -0.874075
1 51 -5.60815 0.870628 -0.765786
1 47 -6.18535 1.88343 -0.480215
1 50 -6.30867 1.45815 -0.382142
1 46 -5.71775 2.77626 -0.540493
1 9 5.34728 2.92227 -1.41919
1 14 4.59557 4.62585 -0.90371
1 42 -4.50428 4.87722 -0.136283
1 76 -1.16485 -3.73228 0.160804
1 77 -0.64343 -4.35804 -0.390704
1 78 0.365817 -4.41269 -0.437156
1 75 -1.28763 -2.73022 0.208995
1 74 -0.291749 -2.62954 0.287686
1 73 -0.338149 -2.56491 -0.704975
1 66 -4.06616 -2.19918 -0.0198244
1 67 -3.34882 -1.98933 -0.653414
1 59 -4.23018 -0.816918 -0.411357
1 2 4.54844 -0.909755 0.638972
1 52 -4.78518 0.298948 -0.760894
1 58 -4.51871 -0.69877 0.506829
1 53 -4.06809 0.788824 -0.27414
1 49 -5.84207 0.643397 -0.0687397
1 4 4.97683 0.864081 -0.0166692
1 5 5.96691 0.958102 0.0986994
1 6 6.32739 1.48637 0.8656
1 7 6.10681 1.9423 0.0212148
1 8 5.69096 2.20719 -0.822563
1 10 5.19787 2.78339 -0.437744
1 45 -5.061 3.24776 0.0542999
1 17 3.03201 3.53923 0.432893
1 12 5.92799 3.8454 -0.0395474
1 11 5.13067 3.39137 0.352991
1 43 -4.67862 3.90906 -0.412847
1 19 2.67259 4.84847 0.168164
1 16 3.32512 4.30502 -0.121034
1 13 5.57317 4.50708 -0.718404
1 41 -4.37702 5.70099 0.40565
1 36 -3.40774 5.41651 -0.0803919
1 20 1.90171 5.41365 -0.153339
1 15 4.08337 4.9676 -0.0944579
1 38 -4.50175 6.41309 0.661378
1 37 -3.55271 6.2773 0.404917
1 28 0.351299 6.88656 0.182954
1 21 1.75349 6.39853 -0.259332
1 22 2.53112 6.76723 0.237832
1 79 0.711604 -4.04654 0.427599
1 80 1.16428 -3.9626 1.32473
1 1 5.48351 -0.618859 0.868858
1 57 -4.62384 0.281487 0.709491
1 56 -3.7084 0.183266 1.1208
1 3 4.57578 0.0638588 0.432574
1 54 -3.71279 0.902261 0.637367
1 55 -4.48754 0.781352 1.25099
1 44 -4.80272 4.08531 0.563069
1 18 3.31509 4.42239 0.804102
1 40 -4.35508 5.09387 1.19354
1 35 -2.94743 4.78862 0.523735
1 34 -2.80654 4.71018 1.52428
1 27 0.47692 6.10701 0.792898
1 26 0.903996 5.56975 1.53214
1 25 1.86184 5.81918 1.49957
1 39 -4.62476 5.99108 1.55309
1 31 -1.09212 7.05974 1.46119
1 24 1.16639 6.50542 1.35436
1 30 -0.404727 7.67005 1.06359
1 29 0.554785 7.64101 0.800767
1 23 2.077 6.87173 1.1221
1 33 -1.97089 5.26303 1.64744
1 32 -1.62121 6.19442 1.53332
ITEM: TIMESTEP
15000
ITEM: NUMBER OF ATOMS
80
ITEM: BOX BOUNDS ff ff ff
-2.0000000000000000e+01 2.0000000000000000e+01
-2.0000000000000000e+01 2.0000000000000000e+01
-4.0000000000000000e+01 4.0000000000000000e+01
ITEM: ATOMS type id x y z
1 69 -2.48382 -2.56008 -1.23535
1 70 -1.8675 -2.11868 -1.89352
1 71 -0.856217 -2.05967 -1.83166
1 72 -0.309189 -2.83514 -1.50011
1 62 -4.63473 -0.483611 -2.13742
1 61 -3.70706 -0.358447 -2.48046
1 73 -0.953515 -3.54321 -1.24881
1 65 -4.66356 -2.33819 -0.664664
1 66 -3.96496 -2.17619 -1.3691
1 68 -3.15087 -1.88005 -0.924319
1 64 -5.08619 -1.43204 -0.76615
1 63 -5.11335 -0.565348 -1.24236
1 60 -3.77582 -0.757522 -1.5762
1 5 4.90791 -0.00334997 -0.805507
1 6 5.28057 0.922569 -0.694297
1 48 -6.00769 1.64708 -1.09761
1 47 -5.51415 2.49806 -0.938388
1 9 4.29121 2.07461 -0.868392
1 8 4.89514 1.61942 -0.205403
1 46 -4.54449 2.67616 -1.00977
1 13 4.8759 4.11105 -1.32657
1 11 5.47436 3.37914 -0.31712
1 44 -3.92646 4.49814 -0.700162
1 19 2.38003 4.70625 -1.60499
1 18 3.19791 4.14898 -1.38878
1 17 3.28409 3.96795 -0.406427
1 14 4.36125 4.96299 -1.41644
1 12 5.69622 4.26798 -0.764335
1 20 1.59459 4.77885 -0.978405
1 67 -3.45068 -2.83146 -0.840205
1 74 -1.27654 -2.85165 -0.605322
1 75 -0.84277 -2.49464 0.239271
1 76 -0.182574 -3.25067 0.315254
1 59 -4.04815 -0.686197 -0.601696
1 3 4.28669 0.0469109 0.147834
1 58 -3.49545 -0.185057 0.0594119
1 4 4.88606 -0.707172 -0.0936619
1 50 -6.59841 0.645939 0.198389
1 51 -5.832 1.17305 0.533786
1 52 -4.82785 1.11403 0.517446
1 53 -4.12118 1.47374 -0.0961805
1 54 -3.28729 1.45257 0.416003
1 7 5.88308 1.55402 -0.194462
1 49 -6.68756 1.45973 -0.381086
1 45 -4.01904 3.50382 -0.774138
1 10 4.65125 3.01802 -0.796679
1 43 -4.77107 4.47408 -0.19745
1 37 -2.99292 4.13081 -0.267878
1 35 -1.76868 4.24139 0.494776
1 16 3.40843 4.75284 0.227507
1 15 4.1229 4.96242 -0.447102
1 36 -2.21501 4.7794 -0.230429
1 21 1.62151 5.07379 -0.0294968
1 77 0.606533 -3.80137 0.596262
1 78 1.10007 -3.42813 1.39182
1 79 0.957802 -2.50293 1.07392
1 80 0.181756 -2.7858 1.62296
1 57 -3.41176 -0.438703 1.02829
1 2 3.71576 -0.0757765 0.967287
1 55 -3.07509 1.04413 1.31048
1 42 -4.93806 4.14635 0.73211
1 41 -4.5446 3.31128 1.08973
1 38 -3.23014 4.48806 0.626928
1 34 -1.24572 5.01204 0.897337
1 28 -0.470407 5.87978 1.54945
1 27 -0.16917 5.10164 2.10095
1 22 1.76576 5.85481 0.60936
1 31 -1.77697 5.56831 1.17737
1 30 -1.30427 6.2887 0.662741
1 29 -0.517152 5.6823 0.575568
1 56 -3.38692 0.224257 1.78043
1 1 3.14299 -0.666733 1.5204
1 40 -4.09015 3.86741 1.77597
1 39 -3.13409 3.95672 1.45496
1 33 -1.99019 5.5821 1.25612
1 26 0.469072 5.43421 2.79627
1 25 1.44081 5.21244 2.61952
1 23 1.7832 5.53163 1.54942
1 24 2.33491 5.05073 2.21007
1 32 -1.52447 5.28829 2.09344
ITEM: TIMESTEP
20000
ITEM: NUMBER OF ATOMS
80
ITEM: BOX BOUNDS ff ff ff
-2.0000000000000000e+01 2.0000000000000000e+01
-2.0000000000000000e+01 2.0000000000000000e+01
-4.0000000000000000e+01 4.0000000000000000e+01
ITEM: ATOMS type id x y z
1 71 -1.41371 -2.04212 -0.759394
1 63 -4.70794 -1.36829 -1.54266
1 69 -2.61574 -1.72315 -2.0122
1 62 -4.42032 -0.424432 -1.61519
1 61 -3.62881 -0.149678 -2.13567
1 45 -3.93072 3.14546 -2.01041
1 19 1.15726 4.75093 -1.89795
1 20 1.33585 5.74397 -1.83714
1 67 -3.21247 -2.79758 -0.993086
1 65 -3.92301 -2.42166 -1.48807
1 66 -3.55174 -1.88139 -0.748972
1 68 -2.59406 -2.02696 -1.04869
1 70 -1.6725 -1.78688 -1.68095
1 72 -1.27641 -1.24868 -0.170525
1 64 -4.00739 -1.70693 -2.17999
1 59 -3.31519 -0.217779 -0.703137
1 60 -3.26928 -0.826904 -1.48258
1 6 4.73011 0.458294 -1.06272
1 5 5.64532 0.634425 -0.689235
1 48 -5.66969 1.7813 -0.788594
1 47 -4.95793 2.44406 -0.575728
1 46 -4.63059 2.63338 -1.50306
1 44 -3.46124 3.66628 -1.29457
1 18 1.91466 4.09954 -1.98941
1 17 2.71985 3.7025 -1.53298
1 11 4.69738 2.84869 -0.833557
1 12 5.31749 3.43866 -0.336422
1 16 2.99247 4.08102 -0.629456
1 13 4.82114 4.14454 0.14771
1 21 1.2205 5.60922 -0.861824
1 75 -1.37691 -3.34967 0.332161
1 78 0.267225 -3.3017 0.375706
1 74 -0.744805 -2.63178 0.0361747
1 73 -0.391477 -1.70253 -0.0148765
1 50 -5.3229 0.815652 -0.376946
1 58 -3.45833 0.309482 0.134735
1 4 5.25708 -0.269733 -0.69411
1 49 -5.52994 1.61236 0.185838
1 7 4.09805 0.921635 -0.470122
1 8 5.01505 1.31002 -0.488308
1 42 -4.42199 3.04077 0.0976153
1 10 4.08523 2.16851 -0.402048
1 9 5.01888 2.21553 -0.0843723
1 43 -4.30143 3.3784 -0.830755
1 36 -1.73053 3.03192 0.16997
1 35 -0.753884 3.25143 0.192202
1 22 2.04628 5.30461 -0.393851
1 15 3.46555 4.77065 -0.0918722
1 14 4.32957 5.01292 0.360133
1 76 -1.32965 -3.52056 1.31662
1 77 -0.670767 -3.58173 0.564554
1 79 0.881533 -2.62257 0.761167
1 80 0.368313 -2.23678 1.53757
1 57 -2.61722 0.17772 0.687756
1 1 4.38275 0.0424008 1.5701
1 3 4.56383 -0.297628 0.0400212
1 2 3.92791 0.17286 0.689081
1 51 -5.69792 0.457009 0.483926
1 52 -4.84525 0.722881 0.956565
1 54 -4.37302 0.400365 1.03463
1 53 -4.13018 1.32433 1.31747
1 41 -4.94895 3.03782 0.955386
1 37 -2.06432 3.3394 1.06712
1 38 -3.06391 3.44219 1.06837
1 34 -1.21266 3.92905 0.78696
1 24 2.13506 5.27593 1.26237
1 29 -0.447257 6.59246 1.1288
1 28 -0.205404 5.60485 1.20923
1 27 0.648381 5.28407 1.57127
1 23 2.64364 5.28241 0.411271
1 30 -1.12691 6.38085 1.83372
1 55 -4.02548 -0.165671 1.78621
1 56 -3.0884 0.116701 1.5732
1 40 -4.58034 2.77503 1.83059
1 39 -4.03247 3.29006 1.15753
1 33 -0.937146 4.40797 1.61652
1 32 -0.826183 4.79171 2.52737
1 26 0.937026 4.64977 2.29526
1 25 1.86083 5.05194 2.20427
1 31 -1.44976 5.52837 2.24463
ITEM: TIMESTEP
25000
ITEM: NUMBER OF ATOMS
80
ITEM: BOX BOUNDS ff ff ff
-2.0000000000000000e+01 2.0000000000000000e+01
-2.0000000000000000e+01 2.0000000000000000e+01
-4.0000000000000000e+01 4.0000000000000000e+01
ITEM: ATOMS type id x y z
1 63 -4.05566 -0.61667 -2.68159
1 65 -3.65445 -2.39787 -1.97285
1 68 -2.95835 -1.96658 -1.44113
1 64 -3.6764 -1.52257 -2.46605
1 62 -3.55169 -0.544907 -1.82392
1 69 -2.57587 -1.12616 -1.85019
1 46 -5.20877 1.57857 -1.08539
1 20 0.977362 5.65869 -2.0022
1 67 -2.75334 -2.56502 -0.671031
1 66 -3.45746 -2.00337 -1.07239
1 61 -3.19 -0.858311 -0.950426
1 70 -1.81298 -0.544439 -2.18491
1 71 -1.55519 -1.37576 -1.65518
1 72 -1.07976 -1.92085 -0.978653
1 52 -4.79308 -0.179849 -1.0641
1 5 4.24554 0.0338181 -1.14427
1 4 3.73263 -0.437565 -0.419301
1 47 -5.84773 2.18858 -0.622782
1 6 4.57953 0.963606 -1.30229
1 45 -4.26191 1.62535 -0.783624
1 7 4.44445 1.92795 -1.06039
1 8 3.85352 2.69053 -1.30941
1 9 4.7519 2.26973 -1.13801
1 10 5.47612 2.39317 -0.48307
1 44 -3.91226 2.27977 -0.101859
1 17 2.37594 3.70725 -1.65526
1 16 2.94098 3.39225 -0.896109
1 19 0.77433 4.68247 -2.09187
1 18 1.51821 4.22788 -1.62259
1 21 1.45268 5.67847 -1.1117
1 77 -0.00271545 -3.3327 0.164097
1 78 0.69673 -2.68121 0.492147
1 60 -3.15711 -1.20756 -0.00610174
1 73 -0.484091 -2.0382 -0.175406
1 50 -5.64297 -0.00801507 -0.513942
1 51 -4.75031 0.277825 -0.182176
1 53 -4.07653 -0.132494 -0.382875
1 3 3.4945 -0.0564601 0.467793
1 49 -5.3526 0.810184 -0.0407921
1 48 -5.15683 1.79611 -0.0209458
1 42 -4.78593 3.98003 0.50386
1 43 -4.38385 3.14632 0.124286
1 11 5.41316 3.17491 0.141233
1 35 -0.783025 3.60714 0.330916
1 15 3.27665 4.21323 -0.428679
1 14 3.70969 4.16549 0.486803
1 23 2.815 5.43782 0.158801
1 22 2.34376 5.75989 -0.663006
1 76 -0.994064 -3.40877 0.270173
1 79 1.58714 -3.01506 0.814177
1 80 2.32509 -3.62653 0.544017
1 75 -0.960352 -3.20404 1.24775
1 74 -0.735475 -2.3722 0.741171
1 59 -3.49683 -1.25677 0.9223
1 55 -3.52073 0.0268427 1.30641
1 54 -4.25664 -0.0970473 0.620652
1 2 3.34927 0.462059 1.29789
1 39 -2.78501 2.7061 0.738958
1 38 -2.02442 2.86558 1.38758
1 41 -4.18268 3.76426 1.27125
1 40 -3.55238 2.99679 1.30169
1 12 4.75339 2.96848 0.86176
1 13 3.8843 3.17609 0.411912
1 36 -1.77273 3.67164 0.249069
1 34 -0.856129 3.99902 1.23964
1 24 2.34277 4.72808 0.709256
1 25 1.74638 4.19102 1.27979
1 31 -1.1267 5.58555 1.60553
1 30 -0.161433 5.82108 1.44286
1 29 0.0503604 5.10857 0.760786
1 28 0.260029 4.8362 1.70705
1 56 -3.2249 0.177106 2.24124
1 58 -3.07341 -0.7792 1.68566
1 57 -2.35062 -0.297636 2.1973
1 1 3.90081 0.732798 2.08311
1 37 -1.88952 3.83962 1.22199
1 26 1.1102 4.21136 2.05548
1 32 -2.0034 5.13833 1.67062
1 33 -1.30106 4.49937 1.98286
1 27 0.706172 4.95995 2.58697
ITEM: TIMESTEP
30000
ITEM: NUMBER OF ATOMS
80
ITEM: BOX BOUNDS ff ff ff
-2.0000000000000000e+01 2.0000000000000000e+01
-2.0000000000000000e+01 2.0000000000000000e+01
-4.0000000000000000e+01 4.0000000000000000e+01
ITEM: ATOMS type id x y z
1 64 -3.37054 -2.50189 -2.73556
1 63 -3.36305 -1.50934 -2.6781
1 70 -1.42547 -1.32388 -3.16042
1 65 -3.51108 -2.77128 -1.79057
1 68 -1.12121 -2.62691 -2.86939
1 66 -2.52206 -2.61795 -1.76728
1 72 -0.475072 -2.15519 -1.93759
1 62 -2.64241 -0.954499 -2.26397
1 69 -1.68661 -1.93479 -2.41347
1 71 -1.00687 -1.36064 -2.24355
1 8 3.52607 1.53295 -2.13628
1 7 4.17605 0.850361 -1.81493
1 19 0.281049 4.13798 -1.84465
1 18 0.963908 4.86204 -1.91589
1 67 -1.56045 -2.83445 -1.99222
1 60 -1.4651 -1.41462 -0.787272
1 73 -0.455414 -1.88482 -0.971655
1 61 -1.91346 -1.26874 -1.66275
1 50 -5.26551 -0.240718 -1.54941
1 4 3.42556 0.186984 -0.578954
1 49 -5.27886 0.716411 -1.2576
1 51 -5.46531 0.603763 -1.03687
1 48 -4.3772 1.0562 -1.49993
1 5 4.16714 0.480281 0.0208913
1 6 4.4814 0.50404 -0.926187
1 47 -4.07098 1.98088 -1.26734
1 9 3.60033 2.27107 -1.49306
1 17 1.41454 4.50621 -1.09356
1 20 0.522659 4.22368 -0.865685
1 74 -0.444332 -1.65049 0.0149927
1 59 -1.80395 -1.59408 0.155038
1 53 -4.71639 0.165032 0.712776
1 54 -3.9636 -0.433543 0.498548
1 3 2.59541 0.0680059 -0.0222588
1 52 -5.13296 0.194467 -0.2
1 45 -3.63919 2.40798 0.477748
1 46 -3.99845 1.85677 -0.276822
1 10 3.5629 2.58581 -0.533834
1 12 3.88586 2.32483 -0.0683805
1 15 2.39409 3.76188 -0.0341191
1 14 3.22942 3.75038 0.500914
1 13 3.61184 2.85615 0.747709
1 11 4.14138 3.27977 -0.105372
1 16 1.53696 4.28566 -0.122298
1 21 -0.0867414 4.97675 -0.672083
1 22 0.7485 5.15783 -0.16067
1 23 1.4774 5.6496 0.302656
1 76 -0.912195 -3.41247 0.469929
1 75 -0.973395 -2.42895 0.379041
1 77 -0.637318 -2.69701 1.10158
1 78 0.306452 -2.57056 0.820836
1 80 1.99323 -2.70046 1.12891
1 79 1.06279 -2.90492 1.38243
1 57 -1.79352 -0.688528 1.71754
1 58 -2.12256 -1.38582 1.0749
1 1 3.87573 -0.187368 1.3477
1 56 -2.59184 -0.65826 1.12454
1 2 3.01473 -0.244572 0.837003
1 55 -3.1619 0.0867508 0.797778
1 44 -3.8564 2.13698 1.41239
1 42 -4.69163 3.85217 1.22082
1 43 -4.14764 3.10594 1.56741
1 36 -1.21346 2.80185 2.21253
1 35 -0.313587 2.89802 1.78417
1 29 -0.109738 4.9489 0.929789
1 25 2.17647 4.4789 1.20685
1 30 0.149662 5.82283 1.35268
1 28 0.690697 4.69483 1.45456
1 24 1.81384 5.41306 1.22044
1 40 -3.67216 3.1252 2.4459
1 39 -3.25469 3.58851 1.65003
1 37 -2.16304 2.72309 1.88419
1 41 -4.21682 3.91241 2.10502
1 38 -2.25719 3.69425 1.65956
1 33 -1.37101 4.41157 2.1913
1 34 -0.579219 3.85035 1.96495
1 26 2.16229 4.64931 2.19275
1 31 -0.695604 5.42303 1.70166
1 32 -0.549065 4.89348 2.52419
1 27 1.48397 5.23634 1.72566
ITEM: TIMESTEP
35000
ITEM: NUMBER OF ATOMS
80
ITEM: BOX BOUNDS ff ff ff
-2.0000000000000000e+01 2.0000000000000000e+01
-2.0000000000000000e+01 2.0000000000000000e+01
-4.0000000000000000e+01 4.0000000000000000e+01
ITEM: ATOMS type id x y z
1 68 -1.55734 -1.81168 -2.58447
1 63 -3.20625 -0.627522 -3.027
1 69 -1.05297 -1.44209 -3.35438
1 65 -3.15169 -2.21668 -2.1702
1 64 -3.58893 -1.36055 -2.4765
1 66 -2.53596 -2.50256 -1.44194
1 67 -1.6326 -2.10983 -1.63698
1 62 -2.66001 -1.04598 -2.28822
1 70 -0.733008 -1.02979 -2.5032
1 7 4.18784 1.08462 -1.4309
1 8 3.60258 1.83729 -1.72564
1 19 0.647964 2.66215 -1.41358
1 51 -4.50201 -0.685301 -0.620863
1 61 -2.53099 -0.82614 -1.31564
1 60 -3.03513 -0.616811 -0.487828
1 71 -0.641493 -1.07105 -1.50796
1 72 0.309796 -1.36738 -1.36846
1 73 0.310947 -1.02284 -0.419013
1 50 -4.93372 0.198659 -0.777333
1 5 3.27151 0.467964 -0.928114
1 6 3.65317 0.335742 -1.84765
1 49 -5.01683 1.06169 -1.27267
1 48 -4.44392 1.72843 -0.787925
1 9 4.04943 2.14177 -0.881155
1 20 0.741334 3.62055 -1.68479
1 18 0.363993 2.64835 -0.457059
1 21 0.891964 4.49781 -1.21068
1 22 0.439151 5.19947 -0.65678
1 76 -1.30863 -2.98451 0.113554
1 79 0.787369 -2.89535 0.501059
1 75 -1.33635 -2.05951 -0.263002
1 80 1.04262 -2.19494 1.17328
1 52 -4.54718 -1.64178 -0.374277
1 53 -4.01532 -1.26031 0.376986
1 59 -2.52411 -1.0597 0.242915
1 74 -0.509168 -1.60733 -0.544616
1 4 2.86125 0.931151 -0.148765
1 47 -3.93924 2.41692 -0.253913
1 10 4.85813 2.68111 -0.625754
1 46 -3.39965 3.0616 0.288293
1 45 -2.74233 2.63414 0.913653
1 17 1.20597 2.87884 0.0607273
1 16 2.08939 3.33471 -0.105838
1 14 3.66913 2.74133 0.265005
1 13 3.24009 3.63875 0.336647
1 11 4.92381 3.03167 0.29859
1 15 3.04935 3.50494 0.145511
1 12 4.13227 3.45906 0.753154
1 23 1.40978 5.28218 -0.446891
1 24 2.10526 4.79303 0.0581481
1 77 -0.859177 -3.26942 0.957015
1 78 0.0871826 -3.5777 0.730449
1 54 -3.67751 -0.722358 1.14497
1 58 -2.61986 -1.99648 0.569864
1 56 -2.21877 -0.448624 0.67883
1 57 -1.88265 -1.35518 0.398122
1 1 1.3156 -0.535232 0.482283
1 55 -2.78863 -0.442052 1.5185
1 2 2.10856 -0.272024 1.03966
1 3 2.3865 0.628934 0.689057
1 44 -3.48684 2.14282 1.3585
1 36 -1.05876 1.57606 1.31653
1 42 -4.60673 2.85827 1.07756
1 37 -1.34648 2.54531 1.36458
1 34 -0.509883 3.36925 1.54564
1 28 0.866291 4.86201 1.25506
1 25 1.93736 4.7383 1.04162
1 30 0.0714164 5.8244 1.1073
1 29 0.705134 5.43157 0.440504
1 43 -4.42873 1.88021 1.15192
1 35 -0.487277 2.38229 1.38666
1 41 -4.11493 3.42721 1.72282
1 38 -1.88868 2.9061 2.11972
1 32 -0.549814 4.85987 2.61896
1 33 -0.47283 3.9008 2.39315
1 27 0.880048 4.59909 2.21822
1 26 1.78542 4.30586 1.92228
1 31 -0.242197 5.07366 1.68197
1 39 -2.75253 2.57375 2.49751
1 40 -3.72751 2.74742 2.35358
ITEM: TIMESTEP
40000
ITEM: NUMBER OF ATOMS
80
ITEM: BOX BOUNDS ff ff ff
-2.0000000000000000e+01 2.0000000000000000e+01
-2.0000000000000000e+01 2.0000000000000000e+01
-4.0000000000000000e+01 4.0000000000000000e+01
ITEM: ATOMS type id x y z
1 69 -0.368822 -0.980068 -3.05184
1 70 0.261074 -1.06881 -2.29182
1 66 -1.98092 -2.13836 -1.82792
1 65 -2.43666 -1.5322 -2.48467
1 67 -1.34073 -1.47249 -1.47844
1 68 -1.02078 -1.3567 -2.40805
1 62 -3.09663 -0.0564478 -1.62754
1 63 -2.13457 0.202538 -1.5977
1 71 0.458247 -0.546674 -1.48236
1 6 3.05419 0.0109698 -2.76535
1 5 2.84812 0.94046 -2.45223
1 7 3.21408 0.991819 -2.72243
1 8 3.60924 1.32276 -1.85996
1 59 -2.97477 -1.21584 -0.554109
1 64 -2.38391 -0.721685 -1.90622
1 61 -3.50957 -0.31274 -0.749269
1 72 0.409868 0.383105 -1.12058
1 48 -3.59134 1.30906 -1.29681
1 3 2.64941 1.22855 -0.599183
1 4 2.47004 0.912565 -1.53117
1 47 -4.33486 1.88208 -0.916138
1 19 -0.00680567 2.3642 -0.861646
1 9 4.0429 1.69521 -1.05468
1 20 -0.00194568 2.78813 -1.75592
1 21 0.030719 3.76128 -1.57642
1 16 1.9487 2.9313 -0.0745983
1 22 0.447755 4.34832 -0.88025
1 76 -0.651306 -2.04336 -0.721652
1 78 0.561663 -2.89212 0.0331606
1 58 -2.59587 -2.14136 -0.541229
1 57 -2.05059 -1.6165 0.126668
1 77 -0.274251 -2.95832 -0.50518
1 75 -0.364322 -1.46925 0.0390925
1 79 1.03297 -2.25541 0.65887
1 52 -5.19626 -0.756235 -0.178279
1 53 -4.67818 -0.779832 0.690581
1 60 -2.74361 -0.353585 -0.106822
1 56 -2.29302 -1.31485 1.0488
1 74 0.56659 -1.1745 -0.147828
1 51 -4.62579 0.01061 -0.443799
1 50 -3.96102 0.204686 0.286669
1 73 0.847182 -0.364473 -0.617308
1 49 -3.94932 0.844788 -0.481498
1 44 -3.5451 1.47836 0.393317
1 43 -2.9263 0.957778 0.956939
1 2 1.7913 1.03071 -0.128438
1 46 -4.51583 2.41845 -0.0918865
1 45 -3.88233 2.37551 0.68475
1 18 0.357718 1.81217 -0.1051
1 17 1.3097 2.17082 -0.0796769
1 10 4.6636 1.68352 -0.251215
1 15 2.62405 2.98532 0.669542
1 14 3.31549 3.70177 0.596329
1 23 0.673099 3.97804 0.0335814
1 13 4.09795 4.00822 0.0356541
1 80 1.51233 -1.83659 1.42765
1 54 -3.71129 -1.01832 0.792649
1 55 -3.04856 -0.898352 1.54317
1 42 -2.92985 1.93283 1.12701
1 36 -0.971726 1.30484 1.70322
1 1 1.90858 1.29919 0.824125
1 11 4.2786 2.51154 0.113269
1 24 1.39863 3.54994 0.568665
1 12 4.56123 3.32248 0.602701
1 30 -0.0321596 4.31321 1.02162
1 25 1.98259 3.67866 1.38698
1 37 -1.96254 1.41486 1.90909
1 40 -4.00793 2.46967 2.64373
1 41 -3.33083 2.19039 1.98984
1 39 -3.19995 2.25348 2.08959
1 38 -2.1913 2.36595 2.09697
1 35 -0.731667 2.26891 1.71432
1 34 -1.02462 2.89156 2.4242
1 28 0.696061 3.28796 2.36367
1 27 1.21271 3.785 3.05667
1 32 -0.96547 4.88838 2.60945
1 29 0.703922 3.94359 1.60471
1 26 1.84586 4.03456 2.33068
1 31 -0.25543 4.65776 1.93386
1 33 -0.950286 3.90253 2.46576
ITEM: TIMESTEP
45000
ITEM: NUMBER OF ATOMS
80
ITEM: BOX BOUNDS ff ff ff
-2.0000000000000000e+01 2.0000000000000000e+01
-2.0000000000000000e+01 2.0000000000000000e+01
-4.0000000000000000e+01 4.0000000000000000e+01
ITEM: ATOMS type id x y z
1 66 -2.46305 -1.92895 -3.80557
1 67 -1.52263 -2.20629 -3.55057
1 65 -2.60385 -0.94171 -3.87946
1 68 -1.34178 -1.42968 -2.93568
1 5 3.53769 1.50628 -2.64916
1 64 -3.195 -0.61931 -3.15459
1 69 -1.1872 -0.43114 -2.83544
1 63 -3.25402 -0.559371 -2.16216
1 62 -2.39351 -0.118273 -1.90543
1 70 -0.283138 -0.128775 -2.52046
1 6 3.93458 1.452 -1.72809
1 3 2.55145 2.23474 -1.68438
1 4 3.00181 2.35305 -2.5823
1 21 -0.188499 3.29898 -1.90197
1 59 -1.92313 -1.70746 -0.1626
1 73 0.761497 -0.725415 -1.11421
1 50 -4.13381 0.763878 -0.932975
1 61 -1.87411 -0.59093 -1.1976
1 71 -0.572897 0.0893285 -1.59708
1 72 0.0832548 -0.0233684 -0.879104
1 8 4.12411 0.173303 -0.298707
1 49 -3.3922 0.675879 -1.5988
1 7 4.14096 0.618736 -1.17455
1 19 0.0484545 1.73569 -1.00215
1 20 0.325072 2.51822 -1.55382
1 2 2.49907 1.92448 -0.721406
1 22 0.368277 2.78477 -1.2538
1 16 1.89901 2.71288 -0.838773
1 58 -2.34323 -2.33307 0.494236
1 76 -0.392392 -2.52348 -0.43258
1 52 -4.97982 -0.726764 -0.0641702
1 60 -2.45357 -0.909611 -0.456441
1 75 -0.281083 -1.55278 -0.221884
1 51 -4.7553 0.181888 -0.439973
1 53 -4.19129 -0.17572 0.208855
1 48 -3.66745 0.758694 -0.639801
1 74 0.259438 -0.72516 -0.261409
1 47 -3.85739 1.08953 0.281012
1 44 -3.136 1.94613 0.315375
1 1 2.95463 1.04906 -0.611267
1 9 3.66892 0.863729 0.259288
1 10 3.79916 1.71173 0.77405
1 46 -3.59197 2.01444 -0.00301164
1 45 -3.47285 2.87165 0.482895
1 18 0.242605 2.09514 -0.0844262
1 17 1.21661 2.2806 -0.229059
1 23 0.806999 3.26574 -0.503808
1 24 1.15346 3.38045 0.427411
1 15 2.3142 3.11236 -0.0154656
1 14 3.13087 3.12228 0.547885
1 13 3.94379 3.1571 1.15074
1 57 -3.25715 -2.01181 0.736671
1 56 -3.22333 -1.63498 1.67456
1 77 -0.127146 -2.69242 0.527338
1 78 0.740455 -2.25479 0.751016
1 79 1.69261 -1.94599 0.766147
1 80 1.47817 -1.4145 1.57285
1 54 -3.53934 0.0909977 0.921746
1 43 -2.71883 1.50129 1.11963
1 42 -3.09523 1.56092 2.05062
1 36 -1.17685 1.04849 1.43331
1 11 4.68002 1.85041 1.22618
1 12 4.79658 2.81043 1.52171
1 31 -0.726102 4.22951 1.75392
1 25 2.04905 3.62013 0.786755
1 55 -3.34303 -0.632377 1.60723
1 37 -1.4912 0.939724 2.37519
1 41 -2.98372 2.55369 2.09631
1 35 -1.30522 1.91186 1.90178
1 34 -0.957004 2.65105 2.47455
1 28 0.605812 2.61684 1.94097
1 33 -1.37519 3.47429 2.826
1 29 0.350252 3.30017 2.61714
1 27 1.53628 2.90969 1.73022
1 32 -1.12968 4.40891 2.65549
1 30 0.217725 4.16716 2.10162
1 26 1.23888 3.78331 1.35204
1 38 -2.30189 1.23793 2.88536
1 40 -3.28642 2.31673 3.0102
1 39 -2.46764 2.01263 3.49614
ITEM: TIMESTEP
50000
ITEM: NUMBER OF ATOMS
80
ITEM: BOX BOUNDS ff ff ff
-2.0000000000000000e+01 2.0000000000000000e+01
-2.0000000000000000e+01 2.0000000000000000e+01
-4.0000000000000000e+01 4.0000000000000000e+01
ITEM: ATOMS type id x y z
1 66 -1.38273 -1.358 -3.70062
1 67 -0.886418 -1.70033 -2.87102
1 65 -1.97476 -0.851221 -4.34451
1 63 -2.09671 -0.309947 -2.74005
1 68 -1.20726 -0.869328 -3.33488
1 64 -2.53272 -0.489394 -3.59272
1 69 -1.04484 0.119157 -3.34603
1 62 -1.50581 -0.964929 -2.27115
1 70 -0.339531 -0.385279 -2.82877
1 2 1.30179 1.48225 -2.28637
1 6 3.38579 0.612619 -1.40267
1 3 1.69006 2.36579 -2.51391
1 4 2.358 1.81671 -2.02653
1 5 3.27427 1.56799 -1.66666
1 59 -2.71656 -1.66342 -0.358215
1 51 -3.45544 -0.896698 -0.339286
1 50 -3.40938 -0.0526845 -0.854342
1 61 -2.02728 -0.560194 -1.53048
1 49 -3.1022 0.706359 -1.41935
1 71 -0.239335 -0.0946706 -1.87114
1 72 -0.366801 -0.132654 -0.874224
1 48 -2.43731 0.884404 -0.694936
1 20 -1.00586 1.62398 -1.12497
1 1 0.803807 0.783217 -1.78698
1 7 2.50328 0.456959 -0.952434
1 21 -1.492 2.49437 -1.01742
1 19 -0.0224226 1.55346 -1.33032
1 22 -0.51786 2.59768 -0.809437
1 18 0.777945 1.7742 -0.780915
1 46 -2.38327 2.70347 -0.494163
1 58 -3.02235 -2.07929 0.493036
1 76 0.144365 -1.12531 -0.200027
1 79 1.81301 -2.22796 1.09196
1 78 0.94979 -1.96081 0.641087
1 52 -4.2662 -1.26421 0.0953919
1 53 -3.7159 -0.429163 -0.00814498
1 54 -2.8808 -0.827937 0.339659
1 60 -2.38229 -0.765705 -0.627768
1 75 1.10423 -0.844355 -0.38671
1 74 0.837012 -0.128098 0.251681
1 73 0.139106 0.423642 -0.219436
1 17 1.74407 1.93931 -0.910373
1 8 2.4721 0.940827 -0.0857804
1 47 -2.68408 1.77855 -0.287581
1 45 -2.16819 2.6032 0.48054
1 23 0.0701523 2.48945 -0.0227432
1 24 0.633331 2.1367 0.735781
1 16 2.09253 2.34115 -0.0702457
1 15 2.18125 2.86377 0.784051
1 57 -2.38284 -1.93857 1.24696
1 55 -2.14674 -1.3428 0.782774
1 56 -1.40538 -1.82772 1.27008
1 77 0.0310554 -1.55991 0.702171
1 80 2.48247 -1.48957 0.920029
1 9 2.52389 0.810916 0.909554
1 10 3.27593 0.798814 1.57924
1 11 3.9555 1.51972 1.50169
1 44 -2.30566 1.69367 0.866589
1 25 1.01026 3.06603 0.770838
1 13 3.49022 3.11308 1.54517
1 32 -1.41913 3.26433 1.14984
1 31 -0.462684 3.18606 1.43326
1 30 -0.178255 3.82475 0.721189
1 14 2.52608 3.3869 1.55277
1 42 -3.00922 1.29856 2.12073
1 36 -0.908469 1.6436 2.62233
1 41 -3.46975 2.18827 2.05473
1 40 -2.92081 2.22966 2.89497
1 43 -2.34504 0.89545 1.49414
1 35 -0.936206 2.42895 2.02572
1 12 4.12813 2.42373 1.89058
1 33 -0.722205 3.21713 1.87533
1 26 1.49576 3.23774 1.63675
1 28 0.297011 3.85161 2.43582
1 29 0.464182 3.93843 1.4647
1 38 -2.11082 0.998237 3.35558
1 37 -1.38958 0.767728 2.71505
1 39 -2.94909 1.47524 3.57923
1 34 -1.32387 3.09832 2.65492
1 27 1.1267 3.30817 2.5677