ITEM: TIMESTEP
0
ITEM: NUMBER OF ATOMS
80
ITEM: BOX BOUNDS ff ff ff
-2.0000000000000000e+01 2.0000000000000000e+01
-2.0000000000000000e+01 2.0000000000000000e+01
-4.0000000000000000e+01 4.0000000000000000e+01
ITEM: ATOMS type id x y z
1 80 -0.47803 -4.085 -0.596936
1 68 -3.41634 -3.2224 -0.611913
1 69 -3.16955 -3.35875 -0.648425
1 73 -2.1778 -3.77099 -0.568829
1 61 -5.02787 -1.82941 -0.957158
1 62 -4.81868 -2.07798 -0.716046
1 8 6.20031 2.67447 -0.837081
1 10 6.01891 3.47489 -0.955271
1 45 -5.88504 3.87129 -0.762589
1 42 -5.31235 5.01265 -0.640086
1 14 5.31272 5.01207 -0.589197
1 28 0.000365982 7.9 -0.815824
1 26 0.915977 7.83377 -0.881388
1 21 3.06772 7.1111 -0.656768
1 74 -1.93131 -3.84435 -0.248517
1 75 -1.68601 -3.90724 0.055985
1 76 -1.44201 -3.96031 -0.301562
1 77 -1.19933 -4.00414 0.528027
1 78 -0.957883 -4.03925 0.220752
1 79 -0.717522 -4.06609 0.47652
1 65 -4.14107 -2.72297 -0.228425
1 67 -3.66117 -3.07138 -0.34613
1 70 -2.92166 -3.48107 -0.317396
1 71 -2.67337 -3.59006 0.364029
1 72 -2.42527 -3.68646 -0.0118263
1 64 -4.37386 -2.52462 -0.393429
1 59 -5.41222 -1.28215 -0.253526
1 60 -5.22624 -1.56406 -0.428295
1 55 -6.00018 0.000555938 0.19117
1 56 -5.87977 -0.341901 -0.088372
1 2 6.10013 0.355282 -0.0717076
1 51 -6.26466 1.48532 -0.359713
1 52 -6.23383 1.09976 -0.0922737
1 53 -6.17862 0.722736 -0.111947
1 3 6.17851 0.722143 -0.0629778
1 4 6.23376 1.09915 0.0307284
1 5 6.26463 1.4847 0.259797
1 48 -6.20022 2.6751 -0.353784
1 49 -6.24875 2.27494 0.205573
1 50 -6.26996 1.87768 -0.395057
1 6 6.26997 1.87705 -0.0348432
1 7 6.24881 2.27431 -0.0153736
1 46 -6.01872 3.47553 0.384527
1 47 -6.12369 3.07604 0.272497
1 9 6.12383 3.0754 0.494996
1 43 -5.53158 4.64223 0.470128
1 11 5.88528 3.87066 0.0514697
1 12 5.72289 4.26036 -0.100827
1 13 5.53191 4.64163 -0.0799878
1 41 -5.06554 5.36989 -0.0145083
1 40 -4.79196 5.71162 0.482214
1 15 5.06595 5.36933 -0.377146
1 37 -3.82234 6.62144 0.449381
1 38 -4.16899 6.33952 -0.384462
1 39 -4.49269 6.03555 0.203044
1 36 -3.45442 6.87935 -0.128019
1 20 3.45502 6.87896 -0.453413
1 19 3.82291 6.62101 -0.0358324
1 35 -3.06709 7.11145 -0.15525
1 33 -2.24245 7.4918 0.495494
1 34 -2.66237 7.31608 0.0564417
1 30 -0.915254 7.83388 -0.0755936
1 27 0.459509 7.8834 -0.218347
1 29 -0.458779 7.88345 0.217407
1 25 1.36713 7.75148 0.4468
1 24 1.81035 7.63713 0.494368
1 66 -3.90311 -2.90508 0.804348
1 63 -4.60019 -2.30969 0.664595
1 57 -5.74059 -0.67042 0.862604
1 58 -5.5842 -0.984083 0.546904
1 54 -6.10028 0.355857 0.65023
1 1 6 0 0.990403
1 44 -5.72261 4.26098 0.962331
1 16 4.79242 5.71109 0.614466
1 17 4.49319 6.03505 0.658247
1 18 4.16953 6.33906 0.945315
1 32 -1.80965 7.63734 0.832931
1 31 -1.36641 7.75164 0.673984
1 22 2.66302 7.31578 0.609796
1 23 2.24313 7.49155 0.978883
ITEM: TIMESTEP
5000
ITEM: NUMBER OF ATOMS
80
ITEM: BOX BOUNDS ff ff ff
-2.0000000000000000e+01 2.0000000000000000e+01
-2.0000000000000000e+01 2.0000000000000000e+01
-4.0000000000000000e+01 4.0000000000000000e+01
ITEM: ATOMS type id x y z
1 70 -2.7613 -4.96337 -1.13432
1 71 -1.85942 -4.55098 -1.05841
1 69 -3.2187 -4.10178 -0.949427
1 68 -2.90392 -3.15576 -0.92759
1 64 -5.55932 -2.27832 -0.600325
1 61 -4.27028 -2.03464 -0.771996
1 63 -5.74374 -1.62143 -1.31371
1 62 -4.76322 -1.42081 -1.39658
1 48 -6.8779 2.47978 -0.752584
1 44 -6.26894 4.03193 -1.20463
1 43 -5.29344 4.00461 -1.11879
1 14 4.2322 4.9785 -0.825396
1 13 4.79727 4.19723 -0.662394
1 11 6.10095 3.46079 -0.854626
1 12 5.20393 3.30283 -0.429934
1 38 -3.4494 5.46419 -0.803582
1 27 1.21354 6.78432 -0.856411
1 26 1.97368 7.33383 -0.514198
1 77 -0.70769 -4.76352 0.4243
1 72 -1.43346 -3.67638 -0.870253
1 73 -1.67811 -3.07485 -0.113126
1 75 -2.07536 -3.69071 1.14304
1 76 -1.30761 -3.98388 0.584224
1 78 0.189747 -4.69202 -0.0105414
1 79 0.753869 -3.91669 -0.264288
1 65 -5.08827 -2.89193 0.0409933
1 66 -4.77487 -3.4592 -0.723406
1 67 -3.86424 -3.37269 -1.1325
1 80 1.67764 -3.59425 -0.0453269
1 58 -4.91028 -0.640823 1.26651
1 60 -4.7491 -1.43416 -0.141336
1 57 -5.10708 -0.091407 0.478482
1 53 -5.48988 0.751254 -0.172587
1 3 4.36176 0.661064 0.867272
1 2 4.97452 0.322682 0.148182
1 1 5.77927 0.334741 -0.458966
1 52 -5.95048 1.17037 0.609121
1 54 -4.66648 0.68733 0.389053
1 49 -7.4106 2.504 0.0928232
1 7 5.75951 2.30683 0.0335526
1 8 5.98694 3.01193 0.714313
1 6 5.43361 1.37539 -0.0837967
1 47 -6.26021 2.75338 -0.0447811
1 46 -5.62764 3.38937 0.41499
1 9 6.66775 3.7615 0.6508
1 45 -6.23718 3.80134 -0.249417
1 10 6.89919 3.73634 -0.313106
1 42 -5.19735 4.82917 -0.58034
1 41 -5.14422 5.40594 0.215154
1 36 -3.17327 5.81025 0.230494
1 20 2.89256 5.69548 0.538966
1 15 4.58394 5.44291 -0.0069109
1 39 -4.12665 5.74589 -0.117137
1 37 -2.96962 6.31449 -0.613921
1 34 -1.31714 5.95577 -0.14363
1 33 -0.810788 6.65357 -0.611312
1 23 2.12393 6.84871 0.416048
1 21 3.29145 6.01758 -0.317783
1 22 2.88681 6.93318 -0.212372
1 16 4.11028 5.96036 0.692826
1 31 -1.4131 7.60241 -0.0330339
1 32 -1.23391 7.46844 -1.00164
1 28 0.364596 7.07697 -0.390842
1 25 1.68577 6.94843 0.358044
1 74 -2.45938 -3.0183 0.513684
1 59 -5.22447 -1.42899 0.751014
1 56 -4.24379 0.264701 0.825229
1 51 -6.31986 1.75241 1.33352
1 55 -3.94845 1.2139 0.842372
1 4 5.15647 0.409279 1.43332
1 5 5.72656 0.900681 0.745476
1 50 -6.807 2.51426 0.881361
1 19 2.70043 5.44444 1.49235
1 40 -4.56354 6.04294 0.723914
1 35 -2.23351 6.1741 0.222582
1 17 3.4057 6.42728 1.21496
1 30 -0.888383 7.39929 0.77847
1 29 0.0663837 7.15098 0.571923
1 24 1.79744 6.94956 1.35691
1 18 3.25254 6.01453 2.10131
ITEM: TIMESTEP
10000
ITEM: NUMBER OF ATOMS
80
ITEM: BOX BOUNDS ff ff ff
-2.0000000000000000e+01 2.0000000000000000e+01
-2.0000000000000000e+01 2.0000000000000000e+01
-4.0000000000000000e+01 4.0000000000000000e+01
ITEM: ATOMS type id x y z
1 68 -3.57634 -2.91344 -1.95116
1 69 -2.72395 -3.27037 -1.58075
1 70 -1.76802 -3.16767 -1.32383
1 43 -5.32404 4.40937 -1.77074
1 42 -4.37546 4.43268 -1.45409
1 67 -4.43614 -2.92547 -2.45167
1 65 -5.58454 -2.40707 -1.5267
1 66 -4.63795 -2.7485 -1.47412
1 72 -2.06764 -2.17731 -0.513408
1 71 -1.33281 -2.85254 -0.485898
1 64 -5.96354 -1.47425 -1.57208
1 63 -5.04383 -1.16342 -1.78605
1 62 -4.28698 -1.29975 -1.14601
1 53 -4.45668 -0.0832247 -0.466674
1 54 -4.06319 0.746797 -0.872303
1 47 -5.85552 2.69818 -0.549186
1 44 -5.99121 4.44253 -1.04054
1 36 -2.02588 4.4836 -0.93221
1 41 -4.4783 5.34994 -1.06856
1 40 -4.38838 5.59123 -0.0952359
1 37 -2.95677 4.8546 -0.809943
1 34 -0.648418 5.76741 -0.982398
1 27 0.0264584 6.60318 -0.290499
1 38 -2.95856 5.67636 -0.234313
1 33 -1.51403 6.27331 -0.992324
1 26 1.01407 6.42749 -0.331629
1 78 0.677146 -3.61528 -0.0567216
1 76 -0.242481 -3.05658 1.42188
1 77 0.439272 -3.58541 0.899564
1 60 -3.04643 -1.66157 0.310986
1 73 -2.11894 -2.38015 0.445112
1 61 -3.83768 -1.41194 -0.267867
1 52 -5.02663 -0.19398 0.367042
1 58 -3.89644 0.00828668 0.702196
1 1 5.1093 0.141929 -1.02521
1 51 -5.5699 0.612651 0.497246
1 55 -3.16087 1.11434 -0.642669
1 56 -2.91645 1.20502 0.31783
1 2 4.96864 0.418381 -0.0715392
1 48 -6.51188 2.35797 0.0927159
1 7 4.57347 1.31516 0.497302
1 46 -5.13498 3.36391 -0.75318
1 45 -5.94491 3.7545 -0.316144
1 12 5.42574 3.16369 -0.856386
1 11 5.97715 2.83395 -0.113113
1 21 2.47092 4.41482 0.276507
1 13 4.98687 4.06638 -1.02529
1 35 -1.16195 4.94373 -0.705175
1 15 3.66754 5.15714 -0.0230453
1 14 4.40123 4.65667 -0.474544
1 39 -3.69131 6.32786 -0.0788844
1 32 -1.81933 6.08116 -0.0622972
1 28 -0.239219 6.29439 0.620729
1 25 1.88862 6.77931 -0.00252183
1 80 0.44888 -4.79868 1.04379
1 79 1.14077 -4.30384 0.499237
1 74 -2.13986 -2.87397 1.29905
1 75 -1.23231 -3.23753 1.51364
1 59 -3.52809 -0.919214 0.744798
1 5 5.35297 0.511489 1.54733
1 50 -6.35364 1.11853 0.883095
1 57 -3.26829 0.683466 1.09087
1 3 4.72283 0.0732232 0.845187
1 6 4.44888 0.558051 1.14693
1 49 -6.98101 1.90218 0.849407
1 8 4.63013 2.24405 0.840299
1 9 4.85989 3.0117 1.44918
1 10 5.37803 2.67833 0.66834
1 20 2.94426 3.82904 0.926024
1 23 1.82067 6.1555 1.02624
1 22 2.2116 5.27652 0.722667
1 16 3.36726 5.97996 0.469488
1 18 2.23339 5.16545 1.78889
1 31 -1.6306 6.53556 0.800435
1 30 -1.08813 6.66556 1.63287
1 29 -0.115541 6.79444 1.47464
1 24 2.08647 7.11098 0.903336
1 17 2.93768 5.7086 1.33001
1 4 4.49417 0.0426053 1.80826
1 19 2.96449 4.47809 1.6941
ITEM: TIMESTEP
15000
ITEM: NUMBER OF ATOMS
80
ITEM: BOX BOUNDS ff ff ff
-2.0000000000000000e+01 2.0000000000000000e+01
-2.0000000000000000e+01 2.0000000000000000e+01
-4.0000000000000000e+01 4.0000000000000000e+01
ITEM: ATOMS type id x y z
1 67 -4.23396 -3.21003 -1.49919
1 65 -5.23838 -1.77327 -1.88941
1 66 -4.3743 -2.24272 -1.67555
1 43 -3.93125 3.75408 -1.99283
1 42 -3.33335 3.919 -2.78392
1 41 -3.4744 4.86164 -2.45565
1 36 -1.82311 4.32381 -1.57555
1 68 -3.38102 -3.70572 -1.33353
1 69 -2.49584 -3.2547 -1.47678
1 70 -1.85771 -2.53105 -1.21732
1 71 -1.15554 -2.9534 -0.658339
1 63 -3.76122 -1.60944 -0.867842
1 64 -4.74371 -1.63805 -1.0333
1 61 -3.12409 -1.09842 -0.797408
1 1 3.47237 -1.07971 -1.23114
1 2 2.78678 -0.380722 -1.04874
1 54 -4.57059 1.6664 -0.654252
1 47 -5.45644 2.62313 -0.941951
1 44 -4.73075 3.73368 -1.39243
1 46 -5.72357 3.55343 -0.650043
1 45 -5.4805 4.38424 -1.16937
1 37 -2.50771 4.62683 -0.907937
1 35 -1.27764 5.09411 -1.23483
1 40 -2.95229 5.16899 -1.66218
1 38 -2.65781 5.38882 -1.54573
1 34 -1.12086 5.11351 -0.230781
1 26 0.191958 5.62599 -0.571632
1 24 1.70436 6.20334 -0.869823
1 25 0.889953 5.76844 -1.28503
1 62 -2.86717 -2.03021 -1.04043
1 72 -1.30483 -2.44588 0.183722
1 60 -3.58717 -0.218166 -0.758855
1 3 3.0292 0.359903 -0.430512
1 4 3.42185 0.0100568 0.418299
1 53 -4.64132 1.22156 0.238866
1 56 -2.92083 1.96901 0.318569
1 59 -3.04891 -0.0736511 0.0680326
1 48 -5.62671 1.83276 -0.358367
1 49 -5.22045 2.36688 0.383699
1 55 -3.6561 1.90138 -0.333216
1 12 4.99461 3.02653 -0.368453
1 21 1.58656 4.27272 -0.106588
1 13 4.20559 3.26502 0.191058
1 11 5.53924 2.57747 0.315978
1 22 2.35046 4.87728 0.106411
1 20 2.38013 3.77521 0.245855
1 39 -3.2559 5.40969 -0.752394
1 33 -1.94429 4.92101 0.311687
1 27 -0.0242192 4.88758 0.0775687
1 23 2.29195 5.84517 -0.140291
1 80 0.0699838 -4.21392 0.649142
1 79 0.942501 -3.75184 0.799048
1 78 0.802146 -2.82568 1.09897
1 73 -2.06004 -2.2406 0.813695
1 77 0.435077 -2.22126 1.80158
1 58 -2.60499 0.577707 0.67528
1 5 3.97748 -0.110236 1.24338
1 52 -4.42948 0.305906 0.593774
1 51 -4.16511 1.25778 0.78852
1 57 -2.7593 1.44106 1.16194
1 50 -4.26785 2.25104 0.684182
1 10 5.44459 1.71948 0.805606
1 19 2.69054 3.74689 1.19047
1 28 0.00396906 5.29913 0.983465
1 14 3.835 3.66383 1.04006
1 32 -2.29423 5.4499 1.07156
1 30 -1.26286 5.97944 0.941204
1 29 -0.932207 5.03692 0.810667
1 15 4.11645 4.62146 0.88465
1 16 4.16378 3.98214 1.64866
1 31 -1.94368 6.14755 1.66581
1 74 -2.41416 -2.57261 1.69166
1 75 -1.52951 -2.26379 2.02945
1 76 -0.541652 -2.43515 1.94654
1 6 3.6815 0.759791 1.62849
1 7 3.79581 1.54234 2.241
1 8 4.29548 2.41491 2.15877
1 9 5.06923 1.96746 1.71031
1 18 3.2482 3.5847 2.00834
1 17 4.09571 3.64389 2.58595
ITEM: TIMESTEP
20000
ITEM: NUMBER OF ATOMS
80
ITEM: BOX BOUNDS ff ff ff
-2.0000000000000000e+01 2.0000000000000000e+01
-2.0000000000000000e+01 2.0000000000000000e+01
-4.0000000000000000e+01 4.0000000000000000e+01
ITEM: ATOMS type id x y z
1 65 -4.08271 -1.85411 -1.92581
1 66 -4.38568 -2.79335 -2.10807
1 70 -1.76726 -3.09771 -1.13146
1 69 -2.67008 -3.54398 -1.08251
1 64 -3.77872 -0.953844 -1.58688
1 1 2.64359 -0.728276 -2.22619
1 46 -5.60528 2.4807 -2.22736
1 42 -3.36918 4.40756 -1.8647
1 41 -3.42977 3.89127 -2.70838
1 40 -2.47977 4.09677 -2.58428
1 67 -3.74715 -2.26616 -1.54403
1 68 -2.80426 -2.60663 -1.43536
1 71 -1.53194 -2.15276 -1.37699
1 63 -3.89874 -0.73614 -0.635861
1 2 2.97898 -0.347785 -1.3696
1 47 -5.18972 2.3714 -1.33765
1 45 -4.98251 2.95912 -1.59348
1 44 -4.63262 3.54707 -0.87259
1 43 -3.77586 4.04495 -1.03005
1 39 -2.27057 4.79323 -1.88364
1 37 -1.85052 4.78988 -0.0973341
1 35 -0.957283 3.88594 -1.51493
1 26 0.478558 4.38413 -1.12162
1 22 1.98956 3.85041 -0.655695
1 38 -2.4252 4.92114 -0.903117
1 34 -0.636741 4.74682 -1.11348
1 33 -0.680059 5.44898 -0.418813
1 25 0.346601 4.90329 -0.268885
1 23 1.20954 4.45682 -0.558301
1 24 0.786052 5.18262 -1.1095
1 61 -3.11924 -2.17614 0.0386988
1 73 -1.47707 -1.6154 0.373045
1 62 -3.10322 -1.20622 -0.230866
1 72 -1.37344 -1.53081 -0.626973
1 3 2.55106 0.0311682 -0.561234
1 4 2.33361 0.524584 0.270413
1 54 -2.93745 1.2801 -0.0718272
1 48 -4.69852 2.31915 -0.451829
1 53 -3.93622 1.38788 -0.0770941
1 11 4.72803 2.04799 -0.0107972
1 21 1.98544 3.21741 0.109419
1 12 4.23432 2.62441 -0.654756
1 36 -1.23047 4.18677 -0.599081
1 27 0.0943157 3.85049 -0.394974
1 28 0.330948 4.51456 0.314554
1 14 3.91538 3.84182 0.566312
1 13 4.34711 3.55405 -0.285587
1 32 -1.20624 6.17821 -0.00597893
1 74 -1.75962 -1.77181 1.31483
1 80 -0.0404789 -2.43317 1.50861
1 60 -3.02328 -1.52653 0.786014
1 59 -2.78022 -0.658332 1.19276
1 58 -2.75081 0.330327 1.39444
1 50 -3.86121 1.76741 1.11673
1 52 -3.69717 1.42725 0.898006
1 57 -2.15475 1.01921 0.996542
1 5 2.54154 0.35652 1.23786
1 9 3.89359 0.877878 1.1289
1 49 -4.57702 2.11489 0.529389
1 55 -2.9312 1.93355 0.690061
1 56 -2.4476 1.78228 1.56138
1 10 4.48753 1.64284 0.881733
1 20 2.16194 2.87706 1.04274
1 19 3.07863 3.01104 1.40656
1 15 3.14891 4.48058 0.623673
1 18 3.17452 3.95259 1.69947
1 16 3.68699 5.33686 0.682803
1 17 3.75957 4.7099 1.4567
1 29 -0.0370092 5.34766 0.708975
1 31 -0.699335 6.50251 0.798335
1 30 -0.574747 5.75391 1.45163
1 78 -0.574478 -3.90712 2.03857
1 79 -0.802684 -2.94408 1.91717
1 77 -0.280416 -3.04106 2.43578
1 75 -1.07512 -1.48357 1.9937
1 76 -0.332933 -2.03761 2.37631
1 51 -4.38939 1.00768 1.47947
1 6 2.70748 -0.160258 2.08463
1 7 3.47378 0.318578 2.49761
1 8 4.26925 0.417063 1.92404
ITEM: TIMESTEP
25000
ITEM: NUMBER OF ATOMS
80
ITEM: BOX BOUNDS ff ff ff
-2.0000000000000000e+01 2.0000000000000000e+01
-2.0000000000000000e+01 2.0000000000000000e+01
-4.0000000000000000e+01 4.0000000000000000e+01
ITEM: ATOMS type id x y z
1 40 -3.51164 4.71762 -2.86267
1 67 -4.30722 -2.38738 -1.69843
1 66 -4.07847 -1.49409 -2.0699
1 65 -3.23865 -1.37167 -2.60362
1 64 -2.93507 -1.42512 -1.65271
1 1 1.1893 -0.0120399 -2.10155
1 41 -3.53728 3.92188 -2.25906
1 39 -2.71995 5.32408 -2.76952
1 37 -1.86554 4.56237 -1.62418
1 38 -1.95318 5.41193 -2.13585
1 69 -2.53102 -2.87765 -1.00017
1 68 -3.36841 -2.53452 -1.42463
1 70 -1.99946 -2.16162 -1.4722
1 71 -1.45542 -2.65453 -0.772259
1 63 -3.7228 -1.14358 -1.09429
1 2 1.84441 -0.217859 -1.38045
1 3 2.38775 0.514345 -0.964136
1 4 2.67333 0.282985 -0.0263992
1 47 -4.40206 1.47322 -0.479807
1 46 -5.3134 1.68813 -0.813192
1 45 -4.55372 2.2916 -0.99252
1 53 -3.06812 1.98276 -1.26486
1 12 3.48002 2.37955 -0.424897
1 44 -3.94923 2.91028 -0.467597
1 43 -3.40284 3.73678 -0.33915
1 36 -1.37114 3.77732 -1.24819
1 24 0.364046 3.38925 -1.05442
1 42 -3.27423 3.67242 -1.32985
1 23 1.36555 3.47076 -1.11064
1 32 -1.15344 6.00117 -0.586978
1 61 -3.09333 -2.10594 0.286936
1 72 -1.09256 -2.06877 -0.0323144
1 62 -3.2526 -1.25562 -0.226819
1 5 3.26894 -0.368901 0.45183
1 54 -3.18227 1.39722 -0.462786
1 48 -4.45921 2.17081 0.242671
1 52 -3.39604 1.88431 -0.323915
1 10 4.06426 1.61088 0.173442
1 11 4.21145 1.78915 -0.786402
1 35 -1.07252 3.09929 -0.570777
1 25 -0.0616196 3.25809 -0.174613
1 22 2.23687 3.18672 -0.689236
1 13 3.83809 3.31513 -0.311554
1 34 -0.744159 4.05494 -0.415611
1 27 0.414797 4.58224 0.601448
1 26 0.462239 3.5909 0.621294
1 14 4.31467 4.11622 -0.655412
1 15 4.11451 4.97803 -0.185565
1 33 -1.02121 5.00057 -0.562797
1 31 -0.406316 6.39782 -0.0650338
1 60 -2.29784 -2.23765 0.884403
1 73 -0.900969 -2.14608 0.964175
1 80 0.114822 -2.77845 1.28616
1 59 -2.29695 -1.42383 1.48735
1 58 -1.57228 -0.75973 1.35387
1 6 3.03821 -0.0842688 1.39582
1 8 3.64628 0.662161 1.59176
1 55 -2.85882 1.15779 0.44267
1 56 -2.22386 1.06484 1.21119
1 9 4.2877 1.19243 1.0486
1 49 -4.93883 2.00282 1.10633
1 50 -4.07059 1.80076 1.57162
1 51 -3.78074 1.84707 0.615117
1 21 1.90606 3.33818 0.248788
1 20 2.38542 3.17328 1.11257
1 16 4.05602 4.82283 0.803227
1 29 0.188622 5.31761 1.21597
1 28 -0.455897 4.54651 1.08455
1 30 0.248926 6.1427 0.658708
1 78 -0.555426 -3.84353 2.58656
1 79 0.200544 -3.46787 2.0263
1 74 -0.757159 -1.44673 1.67135
1 75 -1.13923 -1.78516 2.52971
1 57 -1.63815 0.253817 1.36045
1 7 2.66716 0.814687 1.59956
1 19 2.76849 3.58129 1.95245
1 18 3.37101 4.23527 2.42358
1 17 3.42396 4.38627 1.45221
1 77 -0.923041 -3.3481 3.36547
1 76 -0.926233 -2.33023 3.32915
ITEM: TIMESTEP
30000
ITEM: NUMBER OF ATOMS
80
ITEM: BOX BOUNDS ff ff ff
-2.0000000000000000e+01 2.0000000000000000e+01
-2.0000000000000000e+01 2.0000000000000000e+01
-4.0000000000000000e+01 4.0000000000000000e+01
ITEM: ATOMS type id x y z
1 65 -3.04165 -1.94678 -2.93465
1 64 -2.60658 -1.25048 -2.3827
1 1 1.61089 -1.20854 -2.62118
1 40 -3.45987 4.35498 -2.65367
1 67 -2.79314 -3.38232 -2.96554
1 68 -2.0803 -3.38804 -2.24532
1 66 -3.59842 -2.78452 -3.06302
1 63 -2.46522 -1.98506 -1.7108
1 69 -1.65353 -2.64562 -1.72796
1 2 1.52977 -0.426983 -2.0032
1 41 -4.39773 4.01066 -2.6472
1 38 -1.97084 3.7185 -2.17898
1 39 -2.48289 4.52408 -2.52437
1 70 -1.21304 -1.80387 -1.44183
1 71 -0.247913 -1.93794 -1.27234
1 62 -2.2248 -1.38557 -0.952324
1 54 -1.95155 0.208658 -0.796904
1 3 2.1069 -0.530228 -1.20174
1 11 3.81686 1.99371 -0.934029
1 43 -4.81594 3.57567 -1.02927
1 42 -4.31445 3.39202 -1.8775
1 36 -3.02114 3.77005 -0.78116
1 24 0.744042 3.0109 -0.965982
1 12 3.51115 2.88628 -0.622973
1 37 -2.28135 3.35293 -1.31158
1 25 0.231991 3.71964 -0.493332
1 72 0.400325 -1.7985 -0.516353
1 61 -2.68716 -0.896872 -0.188707
1 73 0.362229 -1.44383 0.417696
1 53 -2.38291 0.931933 -0.264593
1 55 -1.5562 -0.431911 -0.120743
1 4 2.05449 0.110732 -0.441337
1 5 2.67199 -0.29082 0.231568
1 47 -4.82594 1.70148 -0.0601233
1 44 -4.61839 2.63113 -0.793993
1 45 -3.94812 2.57439 -0.0564876
1 46 -3.88142 1.62858 0.242705
1 23 1.08593 2.62239 -0.0950274
1 9 2.78143 1.56087 0.517803
1 10 3.59878 1.71665 0.00888695
1 35 -2.1222 3.33971 -0.766375
1 22 1.42315 2.99619 0.769172
1 13 3.39896 3.80271 -0.251484
1 33 -1.85978 4.6186 0.517847
1 34 -1.79209 3.73186 0.095981
1 26 -0.162987 3.54175 0.398547
1 14 3.01624 4.66549 0.0889333
1 32 -1.01054 4.94072 0.0947516
1 31 -0.756933 5.82677 0.504817
1 15 2.7216 5.31821 0.801709
1 80 0.689466 -3.07378 1.21951
1 60 -2.98484 -0.872266 0.76161
1 57 -1.27015 -1.01709 1.64989
1 74 0.299651 -1.16612 1.37184
1 56 -1.74074 -0.627566 0.848427
1 6 2.96034 0.166441 1.07585
1 52 -2.83622 0.387167 0.450638
1 8 2.48489 1.6726 1.46372
1 48 -4.15639 2.03296 0.608511
1 49 -4.50166 2.47554 1.41797
1 51 -3.23076 1.09294 1.0459
1 21 2.08637 3.7153 1.02306
1 27 -0.0164447 3.97903 1.29645
1 20 2.69181 3.92593 1.7734
1 16 3.61655 4.86365 0.819055
1 17 4.47565 4.55225 1.24218
1 29 -0.159033 5.95869 1.55939
1 28 -0.048387 4.97666 1.33706
1 30 -1.07834 6.29961 1.31541
1 78 -0.0853213 -3.96956 2.8178
1 79 0.288937 -3.57326 1.98166
1 75 -0.144787 -1.76885 2.02335
1 59 -2.70676 -0.341301 1.5523
1 58 -1.81701 -0.249343 1.99899
1 7 2.19971 0.737072 1.35763
1 50 -3.74283 1.85034 1.49108
1 19 3.4226 4.293 2.35675
1 18 4.03074 3.80308 1.74112
1 77 -0.446168 -3.09577 3.16329
1 76 -0.70182 -2.23111 2.71085
ITEM: TIMESTEP
35000
ITEM: NUMBER OF ATOMS
80
ITEM: BOX BOUNDS ff ff ff
-2.0000000000000000e+01 2.0000000000000000e+01
-2.0000000000000000e+01 2.0000000000000000e+01
-4.0000000000000000e+01 4.0000000000000000e+01
ITEM: ATOMS type id x y z
1 66 -2.7777 -1.97819 -2.42004
1 65 -3.51629 -1.3027 -2.49654
1 39 -2.68353 4.17737 -3.05291
1 40 -3.57667 4.63289 -3.0226
1 67 -1.77826 -1.95864 -2.42636
1 68 -1.43864 -2.82133 -2.02759
1 64 -2.75558 -0.799597 -2.05721
1 1 1.62728 -1.47627 -2.94106
1 2 1.698 -1.07511 -2.03432
1 43 -4.41163 2.64836 -1.45326
1 42 -3.67457 3.25823 -1.72564
1 38 -2.45207 3.66815 -2.22869
1 41 -3.4879 4.13508 -2.17498
1 69 -0.850916 -2.90436 -1.20395
1 63 -2.75104 -0.725869 -1.05733
1 62 -2.5729 -1.58891 -0.59484
1 70 -0.821485 -2.50221 -0.291553
1 71 -0.146702 -1.81971 -0.00316054
1 54 -2.03585 -0.134003 -0.267927
1 3 2.3043 -0.340087 -1.7266
1 4 2.72243 -0.556941 -0.852372
1 44 -5.20179 2.67656 -0.834683
1 24 0.553005 2.41466 -0.788421
1 37 -2.21564 3.49398 -1.25981
1 25 0.599852 3.20537 -1.40102
1 12 2.60247 3.30402 -0.448225
1 26 0.730761 3.98688 -0.785164
1 61 -3.39747 -1.86174 -0.11583
1 60 -3.50633 -1.14389 0.573911
1 55 -1.10369 -0.508857 -0.21113
1 72 0.0168253 -0.847753 0.180355
1 5 2.67021 -0.751013 0.136979
1 53 -2.88253 0.310353 0.0713187
1 45 -4.35299 2.45272 -0.377284
1 46 -3.8213 2.27811 0.454352
1 23 1.36787 2.16053 -0.272215
1 10 3.43471 2.44552 0.483018
1 36 -1.44269 3.78661 -0.683147
1 35 -1.6757 4.17464 0.203462
1 11 3.30891 2.59466 -0.485506
1 27 0.495296 4.42692 0.0706539
1 13 2.28143 4.12205 0.0573188
1 33 -2.90774 5.08656 0.16055
1 32 -2.1689 5.42372 0.756881
1 14 2.16196 5.10753 0.216626
1 78 1.18324 -3.93595 1.84895
1 80 1.34056 -3.55461 1.85085
1 74 -0.207337 -1.53094 1.87871
1 59 -2.62294 -0.905893 0.970658
1 57 -1.54609 -1.5143 0.935196
1 56 -0.956591 -0.707252 0.759756
1 73 0.243191 -1.38247 0.993517
1 6 1.68419 -0.819837 0.292818
1 58 -1.70052 -0.538135 0.837274
1 7 2.42303 -0.126744 0.318375
1 47 -4.46578 1.51264 0.320259
1 48 -5.08824 0.733111 0.443061
1 52 -2.36666 0.603741 0.875153
1 51 -3.061 1.14572 1.34826
1 8 2.8219 0.730419 0.674214
1 9 3.06496 1.64408 0.940213
1 49 -4.56434 0.472262 1.27059
1 22 1.95384 2.60031 0.416097
1 18 3.96985 3.65536 1.36112
1 34 -2.60406 4.23294 0.555714
1 17 4.54362 4.44885 1.23435
1 31 -1.23313 5.37765 1.12713
1 30 -0.50325 5.08982 1.73854
1 28 0.202674 5.36699 0.13136
1 29 0.242223 5.35817 1.12345
1 15 3.06078 5.46417 0.470695
1 16 3.95784 5.03186 0.667664
1 79 0.497841 -3.40069 2.33663
1 77 0.725726 -3.15024 2.26059
1 75 -0.815951 -1.98296 2.54018
1 76 -0.00769697 -2.4707 2.22963
1 50 -4.01022 1.22417 1.65322
1 21 2.57772 2.73485 1.19446
1 20 2.41816 3.12693 2.11188
1 19 3.39948 3.039 1.91569
ITEM: TIMESTEP
40000
ITEM: NUMBER OF ATOMS
80
ITEM: BOX BOUNDS ff ff ff
-2.0000000000000000e+01 2.0000000000000000e+01
-2.0000000000000000e+01 2.0000000000000000e+01
-4.0000000000000000e+01 4.0000000000000000e+01
ITEM: ATOMS type id x y z
1 41 -3.10321 2.99158 -3.37872
1 40 -2.14894 3.31274 -3.23822
1 38 -0.865286 3.22953 -2.89419
1 39 -1.30628 3.58759 -3.71685
1 66 -2.73066 -0.589547 -1.84439
1 67 -2.67592 -1.54741 -2.15153
1 2 1.60215 -1.12475 -1.80562
1 1 2.3941 -1.73475 -1.84662
1 65 -2.5187 0.296291 -1.45001
1 3 1.00222 -0.365147 -1.55618
1 42 -3.38627 3.44186 -2.52928
1 37 -1.10003 2.83961 -2.00598
1 69 -1.76784 -3.03322 -1.21161
1 68 -2.08637 -2.23113 -1.72226
1 71 -0.502582 -1.6776 -1.00491
1 70 -1.12838 -2.40916 -0.784285
1 5 1.53207 -1.76105 -0.412891
1 63 -1.69755 -1.32898 -0.976666
1 72 0.199583 -1.05493 -0.726199
1 4 1.17371 -0.87181 -0.722915
1 64 -1.86384 -0.340726 -1.01401
1 24 1.00593 2.16484 -1.39242
1 23 1.79864 1.82149 -0.875422
1 43 -3.91621 3.26802 -1.71468
1 35 -2.05807 3.45223 -0.716166
1 36 -1.31036 3.5674 -1.36131
1 25 0.966575 3.13574 -1.20197
1 13 2.29933 3.96844 -1.14645
1 62 -2.57192 -1.54773 -0.535887
1 61 -3.00238 -1.87141 0.306307
1 73 0.0361706 -0.912602 0.251024
1 6 2.13122 -0.981398 -0.303453
1 56 -0.791046 0.655524 0.650173
1 7 2.29056 -0.108018 0.169907
1 8 2.88776 0.684972 0.192809
1 54 -1.90068 1.00677 0.930971
1 55 -1.26093 1.50923 0.369202
1 9 3.3344 1.44168 0.652198
1 22 1.53185 2.15424 0.0300207
1 10 3.20793 2.26875 0.0949116
1 45 -4.18753 2.81259 0.208525
1 44 -3.96366 2.9903 -0.744475
1 34 -2.93302 3.58753 -0.244814
1 26 0.304757 3.03447 -0.458833
1 12 2.53799 3.71082 -0.193901
1 11 2.4367 2.72226 -0.348109
1 31 -0.943986 4.77991 0.774661
1 27 0.550255 3.51136 0.393761
1 14 1.96694 4.66662 -0.522647
1 15 2.12879 5.03821 0.393254
1 59 -2.24133 -0.726211 0.836771
1 60 -2.94948 -1.35147 1.14576
1 58 -1.38783 -0.611521 1.34519
1 74 0.0137045 -1.47214 1.08518
1 48 -3.94781 0.805816 1.1539
1 49 -3.91912 0.15936 1.90516
1 57 -0.570677 -0.298531 0.838032
1 47 -4.59659 1.42609 1.59964
1 53 -2.88562 0.856262 0.906862
1 46 -4.37642 2.16891 0.946222
1 21 1.64274 2.57185 0.926821
1 20 2.49948 2.05894 1.00332
1 18 3.40408 3.31656 1.68445
1 33 -2.33435 4.0439 0.415111
1 32 -1.41175 3.90652 0.757362
1 28 0.0332866 3.96343 1.10014
1 29 0.326926 4.72851 1.67307
1 17 3.06081 4.22413 1.9338
1 30 -0.0467951 5.22404 0.892112
1 16 2.58088 4.53517 1.11565
1 77 -0.830675 -3.16966 2.12317
1 78 0.122339 -3.42211 2.04144
1 76 -0.648419 -2.30821 2.62471
1 79 1.06676 -3.52301 2.37232
1 75 -0.072736 -1.72243 2.04539
1 80 1.2715 -2.58446 2.09426
1 50 -3.08922 -0.180919 2.36399
1 52 -2.384 0.153781 1.44419
1 19 2.97212 2.40868 1.81794
1 51 -2.25884 0.374354 2.41451
ITEM: TIMESTEP
45000
ITEM: NUMBER OF ATOMS
80
ITEM: BOX BOUNDS ff ff ff
-2.0000000000000000e+01 2.0000000000000000e+01
-2.0000000000000000e+01 2.0000000000000000e+01
-4.0000000000000000e+01 4.0000000000000000e+01
ITEM: ATOMS type id x y z
1 41 -3.38469 3.44341 -3.87722
1 40 -2.59612 3.09064 -4.36346
1 42 -2.96202 3.77881 -3.03835
1 39 -2.10255 3.24863 -3.51934
1 38 -1.39357 3.77496 -3.05417
1 66 -2.99468 -0.859701 -2.5623
1 67 -2.13433 -1.26728 -2.27248
1 2 0.212578 -1.37371 -1.90987
1 1 0.208029 -1.73945 -2.85327
1 24 2.07545 1.82279 -1.60689
1 43 -3.0704 3.71548 -2.05285
1 25 1.74354 2.76151 -1.66934
1 37 -0.669189 3.59849 -2.37247
1 68 -1.82773 -1.91267 -1.56172
1 69 -0.89944 -2.25159 -1.40092
1 65 -3.66059 -0.705218 -1.838
1 3 0.640069 -1.29582 -0.996101
1 4 1.28658 -1.66988 -0.337517
1 64 -3.122 -0.150609 -1.22093
1 23 1.59858 1.68353 -0.758184
1 44 -3.30574 3.13102 -1.27525
1 36 -0.610895 3.40286 -1.38372
1 26 1.45805 2.59363 -0.72839
1 27 0.5863 2.90887 -0.417492
1 12 2.78108 3.46937 -0.857528
1 61 -2.14251 -1.53761 0.954216
1 71 -0.94222 -2.64726 -0.521467
1 70 -0.478807 -3.15107 -1.25646
1 62 -2.15589 -0.91859 0.179338
1 72 -0.499571 -1.79869 -0.224662
1 73 -0.0939226 -1.52227 0.638906
1 5 1.08933 -1.01854 0.388765
1 63 -2.33767 -0.592626 -0.75937
1 8 2.14979 0.459092 0.696622
1 46 -4.2564 1.66104 -0.595738
1 54 -1.30215 1.54175 0.528052
1 45 -3.81462 2.57282 -0.615136
1 22 1.73707 1.59783 0.233667
1 11 2.49007 2.54456 -0.657171
1 34 -1.19818 2.57857 0.190273
1 35 -1.15293 3.20995 -0.569896
1 32 -2.46861 3.81016 -0.122173
1 31 -1.62042 4.23535 0.152387
1 29 -0.20661 4.40942 0.583127
1 28 0.320974 3.62312 0.233506
1 13 2.61329 3.98901 -0.028938
1 60 -1.5197 -2.20605 1.35617
1 59 -2.0133 -1.50065 1.87937
1 74 -0.167869 -0.901467 1.41461
1 75 -0.331443 -0.964228 2.4001
1 6 1.43691 -1.1455 1.33463
1 58 -1.78115 -0.816695 1.18865
1 52 -2.26305 0.819475 2.02232
1 57 -0.933015 -0.306771 1.26477
1 56 -0.191009 0.352805 1.13981
1 7 2.0737 -0.53828 0.863164
1 48 -4.35329 0.682976 0.95204
1 47 -4.03276 1.41632 0.345377
1 53 -2.02066 1.15346 1.09044
1 55 -0.892991 1.05027 1.29743
1 9 2.93658 0.780879 0.162757
1 21 2.19075 2.20943 0.872319
1 20 2.94219 2.59111 1.3945
1 10 2.74342 1.70752 -0.191267
1 33 -2.04198 2.91789 -0.185332
1 30 -1.09872 4.8205 0.782418
1 14 2.67047 3.88847 0.967894
1 77 -0.126802 -2.32984 1.76635
1 78 0.665831 -2.93348 1.85088
1 79 1.65363 -2.93315 1.93779
1 80 2.41176 -2.68279 1.32817
1 76 -0.868275 -1.71592 2.02008
1 51 -2.98234 0.41676 2.59542
1 49 -4.08866 0.468771 1.89481
1 19 3.41191 2.62095 2.27938
1 18 3.92361 3.48375 2.49526
1 15 1.82419 3.88377 1.5271
1 17 3.06233 3.96221 2.65969
1 16 2.15918 4.29088 2.37488
1 50 -3.79029 1.00759 2.68824
ITEM: TIMESTEP
50000
ITEM: NUMBER OF ATOMS
80
ITEM: BOX BOUNDS ff ff ff
-2.0000000000000000e+01 2.0000000000000000e+01
-2.0000000000000000e+01 2.0000000000000000e+01
-4.0000000000000000e+01 4.0000000000000000e+01
ITEM: ATOMS type id x y z
1 39 -1.46556 2.48237 -3.91893
1 41 -2.68481 3.0042 -3.51107
1 40 -2.24454 2.87387 -4.39919
1 1 0.720551 -1.58094 -3.49794
1 38 -1.98631 3.31919 -3.74169
1 42 -3.27513 3.68105 -3.04827
1 2 0.866468 -1.77742 -2.52032
1 3 1.55502 -2.19586 -1.92495
1 67 -1.60077 -1.00124 -2.6153
1 66 -2.22035 -0.519823 -2.02047
1 68 -0.859086 -1.0846 -1.95214
1 43 -3.27952 3.37113 -2.09212
1 44 -3.67237 2.6224 -1.55059
1 36 -1.53265 3.11982 -1.92874
1 37 -1.85087 3.53939 -2.78332
1 70 0.0400013 -2.07549 -0.497625
1 64 -2.21584 -0.611667 -0.111466
1 69 -0.420106 -1.57429 -1.19287
1 4 1.22287 -1.79393 -1.07693
1 65 -2.34862 -0.299353 -1.05727
1 45 -3.76286 1.66265 -1.32609
1 35 -1.35472 2.37548 -1.27473
1 24 0.747413 1.04075 -1.07697
1 25 0.845923 2.04013 -1.09245
1 12 2.53366 2.49003 -0.943935
1 28 -0.953053 3.59277 -0.847217
1 26 0.687577 3.02194 -0.922344
1 13 2.18007 3.35207 -0.601583
1 29 -0.734548 4.51631 -0.518864
1 31 -1.21284 5.28593 -0.625456
1 72 -0.625821 -2.60943 -0.0730824
1 71 -0.140909 -2.98976 -0.845317
1 63 -2.18617 -1.55709 0.156253
1 5 1.71501 -1.43367 -0.285472
1 6 2.15825 -0.871707 0.40544
1 47 -4.12621 0.94577 0.352132
1 23 1.25724 0.496366 -0.41145
1 22 1.39076 1.41169 -0.0100848
1 46 -3.61833 1.14703 -0.48063
1 11 3.03698 2.18154 -0.13436
1 10 3.41572 1.29418 0.13345
1 34 -1.56345 2.76964 -0.382841
1 33 -1.54561 3.65184 0.0882616
1 27 -0.228087 2.97423 -0.516543
1 32 -1.22741 4.59751 0.100007
1 30 -0.87174 5.09711 0.290778
1 14 1.71776 3.14605 0.264272
1 62 -1.93223 -1.87384 1.07952
1 61 -2.29265 -2.05648 1.98525
1 73 -0.566971 -2.40577 0.913051
1 7 2.66669 -0.0730469 0.73834
1 8 3.58405 0.221733 1.00117
1 48 -4.20051 1.09321 1.33713
1 56 0.369026 0.367737 1.7584
1 21 1.82218 1.13209 0.854217
1 9 4.12101 1.02701 0.76529
1 20 2.57962 1.74493 1.07681
1 15 2.21817 2.96641 1.09571
1 78 0.506328 -1.91696 1.57582
1 75 -0.872178 -0.99818 2.22367
1 74 -0.524308 -1.74381 1.6505
1 77 0.0969683 -2.37048 2.35936
1 79 1.38504 -2.23312 1.94016
1 80 0.816481 -1.6865 2.56417
1 60 -2.89431 -1.2841 2.14932
1 59 -2.29908 -0.577824 1.78535
1 57 -0.530304 0.236934 1.33705
1 58 -1.43197 -0.158715 1.53758
1 49 -3.8809 0.481854 2.0598
1 53 -1.88871 1.7138 1.53646
1 54 -0.959322 1.75549 1.94342
1 55 -0.170205 1.19089 1.67448
1 51 -2.45462 1.57133 2.45854
1 52 -2.63503 2.32443 1.81284
1 19 3.16787 2.21015 1.74494
1 16 1.7155 3.23787 1.91626
1 17 2.53243 3.55655 2.37253
1 18 2.72937 2.59045 2.56812
1 76 -0.356778 -1.60082 2.82973
1 50 -3.276 1.02031 2.6454
ITEM: TIMESTEP
55000
ITEM: NUMBER OF ATOMS