ITEM: TIMESTEP
0
ITEM: NUMBER OF ATOMS
80
ITEM: BOX BOUNDS ff ff ff
-2.0000000000000000e+01 2.0000000000000000e+01
-2.0000000000000000e+01 2.0000000000000000e+01
-4.0000000000000000e+01 4.0000000000000000e+01
ITEM: ATOMS type id x y z
1 80 -0.47803 -4.085 -0.596936
1 68 -3.41634 -3.2224 -0.611913
1 69 -3.16955 -3.35875 -0.648425
1 73 -2.1778 -3.77099 -0.568829
1 61 -5.02787 -1.82941 -0.957158
1 62 -4.81868 -2.07798 -0.716046
1 8 6.20031 2.67447 -0.837081
1 10 6.01891 3.47489 -0.955271
1 45 -5.88504 3.87129 -0.762589
1 42 -5.31235 5.01265 -0.640086
1 14 5.31272 5.01207 -0.589197
1 28 0.000365982 7.9 -0.815824
1 26 0.915977 7.83377 -0.881388
1 21 3.06772 7.1111 -0.656768
1 74 -1.93131 -3.84435 -0.248517
1 75 -1.68601 -3.90724 0.055985
1 76 -1.44201 -3.96031 -0.301562
1 77 -1.19933 -4.00414 0.528027
1 78 -0.957883 -4.03925 0.220752
1 79 -0.717522 -4.06609 0.47652
1 65 -4.14107 -2.72297 -0.228425
1 67 -3.66117 -3.07138 -0.34613
1 70 -2.92166 -3.48107 -0.317396
1 71 -2.67337 -3.59006 0.364029
1 72 -2.42527 -3.68646 -0.0118263
1 64 -4.37386 -2.52462 -0.393429
1 59 -5.41222 -1.28215 -0.253526
1 60 -5.22624 -1.56406 -0.428295
1 55 -6.00018 0.000555938 0.19117
1 56 -5.87977 -0.341901 -0.088372
1 2 6.10013 0.355282 -0.0717076
1 51 -6.26466 1.48532 -0.359713
1 52 -6.23383 1.09976 -0.0922737
1 53 -6.17862 0.722736 -0.111947
1 3 6.17851 0.722143 -0.0629778
1 4 6.23376 1.09915 0.0307284
1 5 6.26463 1.4847 0.259797
1 48 -6.20022 2.6751 -0.353784
1 49 -6.24875 2.27494 0.205573
1 50 -6.26996 1.87768 -0.395057
1 6 6.26997 1.87705 -0.0348432
1 7 6.24881 2.27431 -0.0153736
1 46 -6.01872 3.47553 0.384527
1 47 -6.12369 3.07604 0.272497
1 9 6.12383 3.0754 0.494996
1 43 -5.53158 4.64223 0.470128
1 11 5.88528 3.87066 0.0514697
1 12 5.72289 4.26036 -0.100827
1 13 5.53191 4.64163 -0.0799878
1 41 -5.06554 5.36989 -0.0145083
1 40 -4.79196 5.71162 0.482214
1 15 5.06595 5.36933 -0.377146
1 37 -3.82234 6.62144 0.449381
1 38 -4.16899 6.33952 -0.384462
1 39 -4.49269 6.03555 0.203044
1 36 -3.45442 6.87935 -0.128019
1 20 3.45502 6.87896 -0.453413
1 19 3.82291 6.62101 -0.0358324
1 35 -3.06709 7.11145 -0.15525
1 33 -2.24245 7.4918 0.495494
1 34 -2.66237 7.31608 0.0564417
1 30 -0.915254 7.83388 -0.0755936
1 27 0.459509 7.8834 -0.218347
1 29 -0.458779 7.88345 0.217407
1 25 1.36713 7.75148 0.4468
1 24 1.81035 7.63713 0.494368
1 66 -3.90311 -2.90508 0.804348
1 63 -4.60019 -2.30969 0.664595
1 57 -5.74059 -0.67042 0.862604
1 58 -5.5842 -0.984083 0.546904
1 54 -6.10028 0.355857 0.65023
1 1 6 0 0.990403
1 44 -5.72261 4.26098 0.962331
1 16 4.79242 5.71109 0.614466
1 17 4.49319 6.03505 0.658247
1 18 4.16953 6.33906 0.945315
1 32 -1.80965 7.63734 0.832931
1 31 -1.36641 7.75164 0.673984
1 22 2.66302 7.31578 0.609796
1 23 2.24313 7.49155 0.978883
ITEM: TIMESTEP
5000
ITEM: NUMBER OF ATOMS
80
ITEM: BOX BOUNDS ff ff ff
-2.0000000000000000e+01 2.0000000000000000e+01
-2.0000000000000000e+01 2.0000000000000000e+01
-4.0000000000000000e+01 4.0000000000000000e+01
ITEM: ATOMS type id x y z
1 70 -2.49723 -4.99619 -1.27919
1 71 -1.75627 -4.49929 -0.856466
1 69 -2.59583 -3.99907 -1.25985
1 64 -6.0613 -2.81628 -0.71019
1 68 -2.81926 -3.10149 -0.872856
1 80 2.02048 -3.40295 -0.490119
1 63 -5.75103 -1.9501 -1.07871
1 61 -5.42302 -2.07957 -1.72472
1 60 -6.19516 -1.69042 -1.25903
1 62 -4.80282 -1.65515 -1.05106
1 48 -6.2937 1.8653 -0.367331
1 12 6.05918 3.51277 -0.864541
1 14 4.80598 4.13174 -0.50253
1 13 5.12439 3.19108 -0.675548
1 15 4.40468 5.02458 -0.646217
1 38 -3.42398 5.2841 -1.21502
1 37 -2.6501 5.89562 -1.18596
1 22 2.13548 6.43769 -0.375152
1 72 -1.659 -3.89764 -0.0718407
1 76 -0.918432 -4.71755 0.063616
1 78 0.476989 -3.74993 -0.0149691
1 65 -5.56861 -3.0363 0.139253
1 66 -4.66862 -2.8657 -0.254581
1 67 -3.70073 -2.98462 -0.411445
1 73 -1.88591 -2.97774 -0.36596
1 79 1.35563 -3.34635 0.24727
1 59 -6.54794 -1.49435 -0.348981
1 53 -5.8255 0.395196 -0.756696
1 55 -4.32971 0.269284 0.255638
1 3 6.11801 0.86552 0.246178
1 2 5.65855 0.195665 -0.314768
1 1 6.22324 -0.18957 0.412799
1 52 -6.48992 0.528908 -0.0225343
1 49 -6.60209 2.17977 0.513784
1 51 -6.76005 1.28322 0.581884
1 54 -4.9912 0.735407 -0.33111
1 4 6.51838 0.860102 1.16009
1 47 -6.22075 2.86236 -0.347939
1 7 5.71698 1.93757 0.737046
1 46 -6.67288 3.76222 -0.400436
1 45 -7.10516 3.5232 0.474432
1 8 5.57161 2.86051 0.343927
1 9 6.28212 3.4629 0.675567
1 10 7.20929 3.79313 0.469854
1 11 6.72138 4.09939 -0.367262
1 43 -6.2965 4.62363 -0.372702
1 44 -6.3721 3.6494 -0.191797
1 42 -5.95644 5.39931 0.183582
1 39 -3.87695 5.44655 -0.343742
1 36 -3.04742 6.28646 -0.361063
1 34 -1.61202 6.4355 1.00666
1 33 -0.732899 6.10842 0.698227
1 23 1.54068 6.82949 0.308538
1 20 3.26408 6.82915 0.156726
1 21 3.05106 6.55453 -0.766714
1 16 4.41577 5.82713 -0.042648
1 31 -1.38428 7.6687 0.102453
1 32 -0.736818 6.91006 0.106483
1 27 1.05039 8.09922 0.0915245
1 26 1.24359 7.74749 0.996262
1 29 -0.41418 8.01911 0.143326
1 28 0.27195 8.22896 -0.528342
1 77 0.0227363 -4.61324 -0.234992
1 74 -2.26551 -3.49252 0.409053
1 75 -1.35954 -3.90555 0.473768
1 58 -6.29397 -0.734151 0.264428
1 57 -6.01492 -0.0308393 0.90307
1 56 -5.01616 -0.0891031 0.898932
1 5 7.44087 1.24464 1.16995
1 50 -6.18974 1.68415 1.28927
1 6 6.64386 1.59113 0.663689
1 41 -5.32299 5.93624 0.734581
1 18 3.44948 5.53389 1.30423
1 40 -4.35414 5.84302 0.433855
1 35 -2.27565 6.47484 0.255919
1 24 0.943892 7.26354 1.00226
1 19 2.86516 6.19214 0.806921
1 17 4.31079 5.82779 0.954012
1 30 -0.9415 7.8905 0.976588
1 25 1.42705 7.33874 1.87971
ITEM: TIMESTEP
10000
ITEM: NUMBER OF ATOMS
80
ITEM: BOX BOUNDS ff ff ff
-2.0000000000000000e+01 2.0000000000000000e+01
-2.0000000000000000e+01 2.0000000000000000e+01
-4.0000000000000000e+01 4.0000000000000000e+01
ITEM: ATOMS type id x y z
1 70 -2.36468 -2.90959 -2.22744
1 71 -1.6378 -3.23638 -1.62534
1 62 -4.00541 -1.36866 -1.5325
1 61 -4.56362 -1.12053 -2.33738
1 60 -5.26097 -1.32383 -1.64453
1 69 -3.23522 -2.81884 -1.72503
1 72 -1.9558 -3.47026 -0.711386
1 64 -5.1731 -2.30144 -0.841439
1 63 -4.91372 -1.76255 -1.63267
1 68 -2.93577 -2.9394 -0.776006
1 59 -5.33832 -1.16807 -0.667882
1 52 -6.24052 0.0821152 -0.888375
1 1 4.84141 -0.212426 -1.20222
1 53 -5.2662 0.281923 -0.889088
1 54 -4.7052 1.07994 -0.658555
1 49 -6.41689 2.00174 -0.446149
1 48 -5.87765 1.76197 -1.2539
1 47 -5.12676 2.36 -1.48235
1 44 -6.82598 4.214 -0.260837
1 12 5.52865 2.94116 -0.446348
1 43 -6.42692 4.62322 -1.07182
1 41 -4.77649 5.22231 -1.14467
1 42 -5.7744 5.3714 -1.15446
1 40 -3.79113 5.07992 -1.03015
1 39 -2.82818 5.21171 -0.767204
1 37 -1.38508 5.54628 -0.355816
1 21 1.61797 6.81324 -0.809077
1 73 -1.83281 -3.37963 0.274722
1 77 -0.559496 -4.47213 0.721391
1 65 -4.42952 -2.4568 -0.199266
1 66 -3.91126 -1.9069 0.44153
1 67 -3.10146 -2.25678 -0.0636966
1 58 -4.98266 -1.01703 0.278479
1 2 5.49796 0.215841 -0.592368
1 51 -6.58212 0.593503 -0.105358
1 50 -6.67431 1.4638 0.35005
1 55 -4.01444 1.0798 0.0501936
1 7 5.87893 1.50528 0.200279
1 6 6.87154 1.46795 0.199702
1 45 -6.39788 3.31884 -0.40678
1 46 -5.57527 2.88899 -0.758676
1 13 5.35846 3.90703 -0.689909
1 11 6.45071 3.25435 -0.19739
1 14 4.73228 4.36901 -0.0528676
1 38 -1.90492 4.81176 -0.789528
1 36 -2.15709 5.98933 0.0915926
1 22 1.81605 5.99773 -0.298403
1 19 2.62908 6.6879 0.399629
1 29 -0.594574 6.55901 0.200889
1 28 0.133441 7.23713 0.208386
1 20 1.89974 7.27896 0.0436558
1 75 -1.61178 -3.94223 0.938774
1 78 -0.103944 -4.06772 1.51763
1 79 0.731596 -4.57317 1.25229
1 74 -2.53117 -4.00339 0.559389
1 76 -0.701814 -3.49363 0.837489
1 57 -4.85025 -0.117697 0.707604
1 56 -3.96429 0.366812 0.737378
1 3 5.85444 0.307589 0.341829
1 4 6.39573 0.950006 0.890764
1 5 7.37695 1.18364 1.00655
1 8 5.28668 1.83586 0.923131
1 9 5.86784 2.6494 0.948269
1 10 6.7706 2.62367 0.513109
1 32 -1.27686 4.63393 1.31138
1 33 -2.17113 4.7114 0.860998
1 34 -2.56643 5.21835 1.63092
1 31 -0.757714 5.47256 1.10371
1 23 1.48768 5.81321 0.643288
1 18 3.03546 6.38271 1.26263
1 15 4.81969 4.74367 0.878862
1 16 4.03018 5.33661 0.842364
1 35 -2.50485 6.00815 1.02871
1 30 -0.772091 6.47021 1.178
1 25 1.14143 6.8914 2.15041
1 27 0.849917 7.69599 0.725335
1 26 1.05675 7.76164 1.68952
1 80 0.987876 -5.07553 2.09142
1 17 3.33651 5.46989 1.55058
1 24 1.62851 6.41119 1.42438
ITEM: TIMESTEP
15000
ITEM: NUMBER OF ATOMS
80
ITEM: BOX BOUNDS ff ff ff
-2.0000000000000000e+01 2.0000000000000000e+01
-2.0000000000000000e+01 2.0000000000000000e+01
-4.0000000000000000e+01 4.0000000000000000e+01
ITEM: ATOMS type id x y z
1 70 -3.03018 -2.65106 -1.65975
1 71 -2.05435 -2.79143 -1.76452
1 61 -3.86566 -0.773609 -1.59368
1 48 -5.30748 1.69562 -1.67161
1 47 -4.40329 2.08151 -1.82601
1 43 -4.94134 3.61294 -2.13839
1 42 -4.98422 4.35464 -1.45779
1 73 -1.17478 -3.97872 -0.646425
1 72 -1.44523 -3.51281 -1.49611
1 63 -4.66745 -1.19599 -0.950539
1 69 -2.58164 -2.41488 -0.820845
1 60 -4.54321 -0.142299 -1.23417
1 62 -4.17424 -1.71244 -1.63094
1 1 5.28839 -0.532041 -0.63295
1 2 5.263 0.42759 -0.916763
1 49 -6.16815 1.18396 -1.73603
1 50 -7.00506 1.25462 -1.18612
1 44 -5.25903 2.96893 -1.42482
1 45 -5.26539 2.72653 -0.451651
1 46 -4.58998 2.09081 -0.846468
1 12 5.98184 3.49643 -1.53536
1 11 6.48901 3.31102 -0.686071
1 41 -4.18027 4.52861 -0.898223
1 13 5.04269 3.8369 -1.52518
1 22 1.59318 5.02181 -1.24762
1 21 1.87317 5.66859 -0.533769
1 74 -1.46647 -3.60558 0.226074
1 64 -4.9474 -1.25722 0.0150518
1 65 -4.96724 -2.25567 0.142238
1 66 -4.08055 -2.36102 -0.309172
1 68 -2.98771 -1.72588 -0.213025
1 59 -5.40889 -0.247748 -0.722498
1 67 -3.90711 -1.44736 0.0292991
1 58 -5.57174 0.0571126 0.212188
1 3 5.525 1.31821 -0.528897
1 51 -6.51818 1.25151 -0.317802
1 53 -5.16943 1.36003 0.0564708
1 54 -4.44639 0.812346 -0.387069
1 57 -4.65935 0.433569 0.331658
1 55 -3.49582 0.927122 -0.608152
1 4 6.25792 0.953988 0.0606553
1 5 7.04151 1.47505 -0.292555
1 7 5.75385 2.28621 0.00414598
1 6 6.60641 1.98798 0.416227
1 38 -1.85055 4.22771 -0.25167
1 8 4.85169 2.71454 0.0607748
1 10 6.48932 3.05094 0.278121
1 40 -3.48699 3.91021 -0.51793
1 39 -2.65985 3.66946 -0.00581755
1 14 4.56705 3.96912 -0.641316
1 23 1.08447 4.95707 -0.397246
1 24 1.16329 4.99393 0.603892
1 20 2.44194 5.13152 0.0867808
1 15 3.89601 4.5941 -0.231861
1 80 0.35963 -4.98704 1.67456
1 75 -1.66393 -3.31759 1.16745
1 79 0.497432 -5.13526 0.704449
1 78 -0.0147768 -4.38397 1.09078
1 56 -4.00793 1.1904 0.219753
1 52 -6.03501 1.43366 0.5307
1 9 5.59981 2.91104 0.689969
1 37 -2.20271 4.32479 0.677835
1 16 3.77221 4.90207 0.712005
1 17 3.91634 5.04883 1.67505
1 36 -2.4897 4.86612 1.4712
1 31 -0.762808 4.79154 0.929632
1 25 1.33158 5.87888 1.04676
1 19 2.12849 4.84389 0.975161
1 18 2.96356 4.81706 1.50621
1 30 -0.453656 5.0513 1.83515
1 27 0.426725 7.23117 1.61965
1 77 -0.732874 -4.38046 1.77441
1 76 -1.41223 -3.71124 2.04652
1 33 -1.62004 4.55768 2.35969
1 35 -2.70747 5.7762 1.83257
1 34 -2.17651 5.35733 2.57169
1 32 -1.11545 5.19445 1.78146
1 29 -0.259622 5.74028 2.533
1 26 1.30012 6.79435 1.40916
1 28 0.238188 6.26293 1.84874
ITEM: TIMESTEP
20000
ITEM: NUMBER OF ATOMS
80
ITEM: BOX BOUNDS ff ff ff
-2.0000000000000000e+01 2.0000000000000000e+01
-2.0000000000000000e+01 2.0000000000000000e+01
-4.0000000000000000e+01 4.0000000000000000e+01
ITEM: ATOMS type id x y z
1 72 -0.606943 -3.28155 -1.21142
1 62 -4.7147 -0.880562 -1.3757
1 49 -6.18818 0.684251 -1.72582
1 48 -5.2723 0.996 -1.97048
1 47 -4.57255 1.48403 -2.52191
1 46 -4.22341 2.19735 -1.92031
1 43 -4.54146 4.09606 -2.22381
1 73 -1.36977 -3.22305 -0.570538
1 63 -5.41494 -1.42107 -1.85613
1 67 -3.36745 -1.91528 -0.587403
1 71 -0.485935 -2.30008 -1.15941
1 70 -0.969011 -1.49695 -0.857976
1 64 -5.70077 -1.53683 -0.910542
1 61 -4.56649 -0.0532731 -0.837568
1 68 -2.57263 -1.77246 -1.18417
1 69 -1.86405 -1.07993 -0.985382
1 50 -5.90536 0.37309 -0.816814
1 2 4.10672 0.496543 -0.520423
1 45 -3.93227 2.81203 -1.19837
1 44 -4.48962 3.14017 -1.9705
1 13 4.44181 3.03481 -0.307932
1 12 4.9321 3.18259 -1.16537
1 11 5.77598 3.41509 -0.691006
1 42 -4.09079 4.38691 -1.35815
1 22 1.99755 4.82808 -1.39788
1 23 1.57907 4.41406 -0.606717
1 74 -1.2043 -4.14602 -0.220085
1 75 -1.41512 -3.85733 0.72253
1 66 -4.10481 -2.10165 0.0428888
1 65 -5.0483 -1.84876 -0.225514
1 60 -4.42984 -0.933776 -0.397386
1 59 -4.20178 -0.248617 0.294209
1 3 5.08145 0.273968 -0.365737
1 4 6.06539 0.44545 -0.403293
1 5 7.03997 0.587891 -0.537074
1 51 -6.32011 1.15301 -0.37132
1 52 -5.99764 1.24142 0.580834
1 53 -5.00699 1.16006 0.619903
1 54 -4.44501 1.10588 -0.199998
1 57 -2.98218 0.964593 0.486597
1 56 -2.62492 1.24288 -0.414073
1 1 3.17643 0.309903 -0.814671
1 6 7.13246 1.43362 -0.0194508
1 55 -3.59096 1.42461 -0.568783
1 39 -3.28812 3.22816 0.0980424
1 38 -2.31425 3.10396 0.259359
1 14 3.43564 2.93825 -0.266999
1 10 5.75454 3.22971 0.286701
1 41 -4.2255 4.22969 -0.391922
1 40 -4.01371 3.81953 0.475103
1 24 0.705009 4.81486 -0.366972
1 15 3.10972 3.79686 0.121561
1 16 3.12158 4.53141 0.813967
1 21 2.43964 4.70963 -0.500321
1 76 -0.857951 -3.72567 1.53777
1 80 0.592772 -3.38373 0.732291
1 58 -3.75209 0.433895 0.844225
1 8 5.32653 1.97029 0.40422
1 7 6.20686 1.46976 0.378424
1 9 4.92611 2.84591 0.677322
1 37 -2.24776 3.74619 1.03477
1 36 -2.23914 4.44407 1.75663
1 31 0.165284 4.46403 1.98933
1 19 2.21986 3.90405 0.797855
1 20 1.71732 4.41937 0.0921214
1 17 2.88889 5.11337 1.58966
1 35 -1.67211 5.14819 1.33436
1 30 -0.308298 4.86476 1.20586
1 25 0.890576 5.1248 0.563665
1 29 -0.0400578 5.71786 0.73884
1 26 1.12984 5.77845 1.27261
1 27 0.648874 6.6034 0.992848
1 77 -1.24644 -4.39173 2.20116
1 79 0.1516 -3.90219 1.46191
1 78 -0.677142 -3.62186 1.92251
1 18 2.71625 4.14306 1.62828
1 32 -0.54044 4.24134 2.66823
1 33 -1.52047 4.13173 2.86303
1 34 -1.56953 4.95517 2.31152
1 28 -0.203871 6.37716 1.4645
ITEM: TIMESTEP
25000
ITEM: NUMBER OF ATOMS
80
ITEM: BOX BOUNDS ff ff ff
-2.0000000000000000e+01 2.0000000000000000e+01
-2.0000000000000000e+01 2.0000000000000000e+01
-4.0000000000000000e+01 4.0000000000000000e+01
ITEM: ATOMS type id x y z
1 72 -2.00906 -3.40042 -1.78402
1 71 -1.55541 -3.18793 -0.935671
1 63 -5.43876 -0.882326 -1.50992
1 49 -5.64209 0.204505 -2.15148
1 48 -5.00302 0.913612 -1.88431
1 47 -5.01276 1.91385 -1.74564
1 44 -4.31943 3.52248 -2.83438
1 45 -4.11877 3.07854 -1.97089
1 43 -4.52333 4.47665 -2.5934
1 73 -1.48442 -3.29356 -0.938928
1 70 -1.34995 -2.2566 -0.672392
1 64 -4.87048 -0.697987 -0.705799
1 68 -2.94216 -1.29799 -1.37643
1 69 -2.08505 -1.64855 -1.02116
1 50 -6.14806 0.153292 -1.27933
1 62 -4.6865 -0.530255 -0.947019
1 61 -4.22833 -0.182146 -0.124486
1 1 2.99903 0.59586 -0.679555
1 2 3.78347 0.117213 -1.07373
1 52 -4.51324 0.93043 -0.474999
1 51 -5.34329 0.410836 -0.742582
1 53 -4.02436 1.40019 -1.19724
1 46 -5.01062 2.89741 -1.55863
1 54 -3.4852 1.83483 -0.462266
1 12 4.37515 1.37701 0.210179
1 40 -2.78983 3.44095 -0.92744
1 41 -3.72726 3.77156 -1.07471
1 42 -3.82604 4.35047 -1.88543
1 23 0.757429 4.25913 -1.35038
1 22 1.62081 3.81432 -1.5673
1 21 2.12402 3.9702 -0.711351
1 74 -1.77651 -3.41834 0.000750411
1 66 -3.95296 -1.74403 0.0324956
1 67 -3.2443 -1.91723 -0.653242
1 65 -4.84943 -1.31959 0.0719911
1 60 -3.8066 0.0906616 0.746387
1 3 4.71356 -0.0430473 -0.733963
1 4 5.67587 0.151268 -0.618998
1 5 6.58694 0.377364 -0.253346
1 6 6.88332 0.754928 0.625936
1 55 -3.28395 2.45131 0.304545
1 13 3.63675 2.03903 0.0387173
1 11 5.08335 2.00862 -0.132968
1 39 -2.08137 2.90279 -0.489925
1 38 -1.84485 3.73712 0.0181611
1 14 3.77811 2.94465 0.442857
1 24 0.808099 4.79058 -0.523679
1 20 2.09943 4.57112 0.0848329
1 16 3.61572 4.60578 0.0650183
1 15 4.16534 3.75978 -0.0045582
1 75 -1.12597 -3.91648 0.587751
1 79 0.96688 -4.29355 0.889816
1 80 1.65367 -4.98607 0.700654
1 78 0.815225 -3.59435 1.58891
1 59 -3.09057 -0.629467 0.723561
1 58 -2.45879 0.0293188 1.12928
1 56 -3.18469 1.8172 1.08441
1 57 -2.63654 0.995341 0.953039
1 7 6.06994 1.14481 1.0772
1 8 5.28092 1.04969 1.70032
1 9 4.80259 1.90523 1.47944
1 10 5.49842 2.0938 0.776862
1 37 -2.57811 3.94508 0.67169
1 36 -3.02192 4.49275 1.39954
1 18 3.13432 4.14884 1.62967
1 17 3.67853 4.76861 1.05522
1 30 -0.645102 4.67941 0.795142
1 29 -0.0854274 5.4794 1.00287
1 25 0.852294 4.90047 0.459896
1 26 0.471427 4.89145 1.3795
1 19 2.38564 4.1461 0.958582
1 28 0.444445 6.33908 1.09392
1 76 -0.635975 -3.39232 1.28718
1 77 0.194782 -2.84983 1.42844
1 32 -1.35471 3.97604 2.49968
1 35 -2.60568 4.79215 2.25998
1 31 -0.860212 4.33186 1.70437
1 27 -0.121356 5.65666 1.57801
1 33 -1.67531 3.47357 3.29568
1 34 -2.17693 4.31789 3.02939
ITEM: TIMESTEP
30000
ITEM: NUMBER OF ATOMS
80
ITEM: BOX BOUNDS ff ff ff
-2.0000000000000000e+01 2.0000000000000000e+01
-2.0000000000000000e+01 2.0000000000000000e+01
-4.0000000000000000e+01 4.0000000000000000e+01
ITEM: ATOMS type id x y z
1 48 -4.47374 0.23384 -2.43429
1 45 -4.42229 2.90628 -2.64588
1 44 -3.67611 2.77293 -3.29605
1 71 -1.37278 -3.22181 -1.67386
1 70 -0.620215 -2.72977 -2.11852
1 63 -3.6678 -1.3066 -2.09272
1 49 -5.11962 -0.490387 -2.68036
1 62 -3.57841 -0.349343 -1.80627
1 47 -4.0591 1.14103 -2.44111
1 46 -4.49903 2.01509 -2.22124
1 42 -3.99462 3.41968 -1.88422
1 43 -3.37448 3.47463 -2.65752
1 72 -1.80774 -3.45959 -0.803368
1 66 -3.73902 -2.17289 -1.54877
1 67 -2.76871 -2.29843 -1.71337
1 68 -1.78713 -2.17445 -1.87779
1 69 -0.870878 -1.78107 -1.92388
1 64 -3.64003 -1.92676 -1.31348
1 50 -5.40865 0.0999391 -1.91682
1 61 -3.59775 0.10281 -0.9138
1 1 2.93721 0.188905 -1.12969
1 51 -5.38848 0.980021 -1.42604
1 52 -4.44044 1.02349 -1.13943
1 53 -4.24368 1.57603 -0.324223
1 40 -3.14333 2.33866 -0.526974
1 41 -3.39134 3.04803 -1.17991
1 23 0.764762 4.74858 -1.49429
1 22 0.839707 4.08401 -0.739268
1 24 0.63892 5.29238 -0.666546
1 73 -2.0812 -3.03273 0.0642808
1 65 -4.31766 -2.41026 -0.770311
1 60 -3.32986 0.105625 0.0833872
1 2 3.72028 0.0662018 -0.509005
1 4 5.08251 -0.16146 -0.36322
1 5 6.09072 -0.320454 -0.353597
1 56 -3.65243 0.875316 0.850245
1 3 4.40147 0.316038 0.192742
1 54 -4.05405 2.36743 0.271305
1 39 -2.54712 3.14254 -0.377673
1 15 3.45249 3.08326 0.121152
1 38 -2.35194 3.95386 0.147352
1 21 1.2183 3.48426 -0.0355051
1 25 0.668636 5.87264 0.144695
1 74 -2.92249 -2.9469 0.584325
1 75 -2.11468 -3.04639 1.19141
1 78 0.119393 -3.72853 1.23141
1 80 1.52101 -2.36074 1.1612
1 79 0.781893 -3.01351 1.03681
1 76 -1.2717 -3.01125 1.72595
1 59 -3.41745 0.885566 0.717808
1 6 6.36652 0.177122 0.462511
1 55 -4.31412 1.62487 0.898072
1 57 -3.14476 0.0348413 1.01203
1 58 -2.56598 0.822485 1.23085
1 12 3.95293 1.93062 1.44764
1 11 4.81761 2.02415 0.961209
1 10 5.5398 1.4102 1.28554
1 31 -0.910763 4.17043 0.792709
1 20 1.4985 3.89763 0.838617
1 16 2.60798 3.53962 0.419041
1 19 2.41394 4.15132 1.11123
1 13 3.77948 2.83378 1.88492
1 14 4.01117 3.14063 0.950347
1 37 -2.17635 3.97416 1.13978
1 30 -0.318961 4.97044 0.590994
1 29 0.317658 5.36895 1.26624
1 18 2.95181 4.89209 1.51247
1 17 3.1893 4.04826 1.03589
1 26 0.492366 5.66413 1.10933
1 77 -0.402053 -3.40025 2.01172
1 8 5.82592 0.923815 1.89099
1 7 6.22371 0.119926 1.44611
1 9 5.66225 1.87829 2.16684
1 36 -2.80064 4.08172 1.90397
1 32 -0.805679 3.54186 1.59836
1 27 0.972744 4.84103 1.4009
1 28 0.859154 5.61259 2.05584
1 35 -2.38273 3.91394 2.78696
1 33 -0.804664 3.80181 2.55304
1 34 -1.51306 4.35992 2.98111
ITEM: TIMESTEP
35000
ITEM: NUMBER OF ATOMS
80
ITEM: BOX BOUNDS ff ff ff
-2.0000000000000000e+01 2.0000000000000000e+01
-2.0000000000000000e+01 2.0000000000000000e+01
-4.0000000000000000e+01 4.0000000000000000e+01
ITEM: ATOMS type id x y z
1 49 -4.81381 -0.128737 -2.3787
1 48 -4.6605 0.306003 -3.26287
1 47 -4.05212 1.09175 -3.31746
1 44 -3.1085 3.44957 -2.91038
1 66 -3.17183 -1.3119 -1.74121
1 70 -0.874755 -2.32986 -1.54382
1 69 -0.794791 -1.36187 -1.85929
1 67 -2.26975 -1.08695 -2.09775
1 68 -1.39631 -0.609745 -2.10038
1 50 -4.5619 -0.452471 -1.4655
1 51 -5.17387 0.303663 -1.25223
1 46 -3.4239 1.52566 -2.67869
1 45 -3.15199 2.48724 -2.63136
1 43 -2.64661 3.78042 -2.09194
1 71 -1.82789 -2.26924 -1.27788
1 65 -2.78302 -2.11738 -1.30523
1 62 -3.63483 -1.26198 -0.303512
1 61 -3.38008 -0.430582 -0.805001
1 60 -3.19356 0.473856 -0.448941
1 52 -4.96594 1.1477 -0.766298
1 41 -3.20167 2.15627 -1.55447
1 40 -3.30167 2.66747 -0.695522
1 42 -2.55337 2.89631 -1.64098
1 15 3.16737 3.37547 -0.207386
1 24 0.752357 4.5392 -1.13885
1 25 0.184546 4.79152 -0.358068
1 72 -1.89206 -2.66938 -0.383181
1 73 -2.62275 -2.98069 0.231817
1 80 0.828172 -2.69809 0.218081
1 64 -2.58897 -1.81477 -0.364206
1 74 -3.22716 -2.19965 0.42896
1 63 -2.88304 -1.1702 0.357805
1 1 2.01791 -1.21935 -0.351831
1 2 2.59647 -0.516295 0.071533
1 3 3.11006 0.295488 0.338104
1 5 4.8232 0.259324 -0.0186934
1 53 -4.63689 1.44215 0.1288
1 59 -2.34947 0.918349 -0.159217
1 4 3.9172 0.700496 -0.0766132
1 13 4.02686 1.69554 -0.265994
1 39 -2.90967 2.78076 0.210992
1 22 1.46327 2.99677 -0.470573
1 20 1.4231 3.59081 0.328689
1 21 2.17125 2.95155 0.225677
1 16 2.69065 4.19066 0.120264
1 14 3.89162 2.68877 -0.285887
1 23 1.5042 3.93195 -0.854349
1 26 0.166114 5.0271 0.620165
1 77 -1.07347 -3.54223 1.29638
1 78 -0.22768 -3.85302 0.855882
1 79 0.461815 -3.15179 1.03664
1 75 -2.40567 -2.2804 0.973086
1 76 -1.73801 -2.97595 0.810741
1 58 -2.0443 0.562032 0.722315
1 6 5.78795 0.374722 0.234415
1 54 -4.50431 0.629804 0.683757
1 55 -3.90746 0.97657 1.43518
1 57 -1.92991 0.925519 1.65134
1 9 5.28017 1.04598 2.28165
1 12 4.25368 1.43853 0.668395
1 11 4.92271 2.18475 0.770875
1 19 1.9686 3.24115 1.09192
1 38 -3.02909 3.75734 0.332927
1 37 -2.86193 4.44424 1.05774
1 32 -1.02518 3.90601 1.43868
1 31 -0.0375898 4.07405 1.47798
1 17 2.99044 4.37114 1.06379
1 18 2.71817 3.58667 1.65321
1 27 1.11503 5.31314 0.768751
1 28 1.7493 4.56796 0.954791
1 8 5.81596 0.323599 1.87802
1 7 6.30137 0.0851945 1.03816
1 56 -2.92638 0.96888 1.6265
1 10 5.35088 1.71868 1.54643
1 33 -1.47878 3.48279 2.22743
1 36 -3.15232 4.73679 1.99112
1 30 0.836574 3.83713 1.89747
1 29 1.81808 4.00051 1.77276
1 34 -2.06746 3.66118 3.01441
1 35 -2.90525 4.17229 2.80094
ITEM: TIMESTEP
40000
ITEM: NUMBER OF ATOMS
80
ITEM: BOX BOUNDS ff ff ff
-2.0000000000000000e+01 2.0000000000000000e+01
-2.0000000000000000e+01 2.0000000000000000e+01
-4.0000000000000000e+01 4.0000000000000000e+01
ITEM: ATOMS type id x y z
1 47 -3.43575 0.89614 -4.39302
1 49 -3.81638 0.813761 -2.59521
1 48 -3.86239 0.55616 -3.5572
1 46 -3.51831 1.81186 -4.02041
1 45 -3.38216 2.3293 -3.17137
1 44 -2.6782 3.01296 -2.95607
1 71 -0.302707 -2.33404 -1.48877
1 66 -2.47117 -0.727518 -1.85378
1 50 -3.44228 0.721049 -1.6708
1 43 -2.26819 2.61658 -2.14069
1 72 -1.18375 -2.72429 -1.22182
1 80 0.398948 -2.79655 -0.833436
1 65 -2.60489 -1.66748 -1.50884
1 68 -1.64945 -0.834627 -0.785426
1 70 -0.477532 -1.37921 -1.21919
1 67 -1.92185 -0.0526379 -1.3642
1 60 -2.50871 0.0525588 -0.554292
1 51 -4.31187 1.21221 -1.74801
1 52 -4.09279 1.89129 -1.03988
1 14 4.05682 2.77942 -1.25644
1 13 4.41001 1.93353 -0.832203
1 41 -2.73092 2.58089 -1.15844
1 42 -1.74761 2.50337 -1.29723
1 23 -0.182343 3.7186 -1.52089
1 24 0.366838 4.48845 -1.19226
1 74 -2.27848 -2.99759 0.431784
1 73 -1.64426 -2.8867 -0.346179
1 64 -3.38806 -1.86823 -0.937998
1 69 -1.34768 -1.77461 -0.932812
1 79 0.10865 -2.61173 0.106773
1 63 -4.06264 -1.32426 -0.438517
1 62 -3.08414 -1.37196 -0.244222
1 61 -2.61294 -0.596558 0.191234
1 5 4.68354 0.0329541 0.402481
1 59 -2.55854 0.671347 0.236414
1 2 2.36397 0.355305 0.96747
1 3 3.25457 0.699913 0.669121
1 4 3.83386 -0.0736344 0.92019
1 6 5.63465 -0.103756 0.15555
1 54 -3.8958 1.53818 0.726417
1 53 -4.41777 1.85058 -0.0950531
1 40 -2.98122 2.63912 -0.192071
1 21 0.0422497 2.75812 -0.0342085
1 12 4.79848 1.48865 -0.0290671
1 39 -3.39794 2.93182 0.66994
1 22 -0.351417 2.94015 -0.92493
1 16 3.3697 2.99951 0.172708
1 15 4.25598 2.85822 -0.274987
1 38 -3.44438 3.7594 1.2261
1 25 0.307735 4.52067 -0.196002
1 76 -1.35589 -3.62352 1.24269
1 75 -2.35952 -3.66014 1.17657
1 77 -0.515974 -3.48435 1.76918
1 78 -0.110984 -3.16633 0.91558
1 57 -2.12637 0.989613 0.775286
1 1 1.74608 -0.382638 0.665739
1 7 6.31981 -0.126595 0.885042
1 55 -3.75152 1.08284 1.60358
1 58 -2.44697 1.66076 0.0985832
1 56 -2.89744 0.631094 1.29353
1 20 0.728437 2.63651 0.689514
1 19 1.65901 2.50516 0.36759
1 11 4.7034 2.08679 0.775052
1 18 2.3049 2.99396 0.964126
1 17 3.21099 3.4107 1.0606
1 37 -2.55012 4.22802 1.26055
1 27 1.13151 3.81141 1.29369
1 26 0.769302 4.52341 0.686568
1 8 6.06962 0.456755 1.66267
1 9 5.21816 0.843588 2.0195
1 32 -1.67077 2.84756 2.0265
1 10 4.9083 1.7305 1.68136
1 36 -2.58055 4.40607 2.24507
1 33 -2.15541 2.33408 2.73498
1 31 -0.66831 2.87598 2.11143
1 30 0.144332 3.38531 1.86102
1 29 1.00889 3.69416 2.28585
1 28 1.61053 4.41885 1.92146
1 34 -2.66434 2.91241 3.34177
1 35 -2.85891 3.8342 3.005
ITEM: TIMESTEP
45000
ITEM: NUMBER OF ATOMS
80
ITEM: BOX BOUNDS ff ff ff
-2.0000000000000000e+01 2.0000000000000000e+01
-2.0000000000000000e+01 2.0000000000000000e+01
-4.0000000000000000e+01 4.0000000000000000e+01
ITEM: ATOMS type id x y z
1 46 -3.27636 1.56843 -5.27199
1 47 -4.16508 1.2226 -4.96097
1 48 -3.67196 1.40112 -4.1122
1 45 -3.08643 1.77277 -4.30133
1 49 -3.63232 1.0917 -3.16069
1 44 -2.89235 2.57088 -3.70663
1 43 -2.38374 2.85043 -2.91196
1 70 -0.717146 -1.64899 -1.62166
1 50 -3.47413 0.752776 -2.22382
1 42 -1.98537 2.47967 -2.07804
1 63 -3.43545 -2.31567 -0.104811
1 64 -3.46893 -1.73018 -0.908731
1 72 -1.18305 -2.85942 -1.05354
1 71 -1.50956 -2.25147 -1.78484
1 80 0.917809 -2.73423 -0.586085
1 65 -3.34861 -0.947267 -1.48643
1 68 -0.664659 -0.445724 -0.768518
1 69 -0.0678984 -1.20389 -1.0133
1 66 -2.60546 -0.327702 -1.28036
1 67 -1.629 -0.354945 -1.0682
1 51 -3.49772 0.912675 -1.2355
1 12 3.88018 2.19186 -0.880857
1 41 -1.54707 2.48737 -1.16938
1 13 2.92938 2.04147 -0.715393
1 24 1.32306 4.418 -0.82393
1 74 -1.6368 -2.76674 0.847319
1 78 -0.304117 -3.79563 0.0239208
1 79 0.335963 -3.53002 -0.684125
1 62 -2.65365 -2.17252 0.497223
1 73 -1.5425 -2.68078 -0.13072
1 61 -2.81895 -1.22719 0.766725
1 60 -2.97171 -0.399785 0.248751
1 59 -2.85886 0.313096 -0.419177
1 57 -2.35364 0.728137 0.244874
1 2 2.14962 0.537406 -0.110997
1 6 4.70304 0.257934 0.319923
1 52 -3.74915 0.95643 -0.263403
1 53 -3.39408 0.791167 0.668868
1 58 -2.80249 1.31246 -0.44246
1 3 3.13756 0.519673 0.0368041
1 4 3.48597 1.3981 0.377441
1 5 4.29908 1.06016 -0.137589
1 20 0.230739 2.42446 -0.225719
1 18 1.49572 2.06593 0.966862
1 19 1.00701 2.6556 0.340387
1 14 2.94293 2.73398 0.0157169
1 11 4.518 2.33847 -0.11526
1 40 -1.52408 2.70992 -0.182383
1 21 -0.344252 3.04615 0.325534
1 22 -0.228515 4.04135 0.311633
1 23 0.56047 4.02921 -0.312273
1 25 1.4066 4.04846 0.101269
1 76 -0.744427 -4.05634 1.77689
1 75 -1.50613 -3.42685 1.5936
1 77 -0.273421 -3.66371 0.995529
1 54 -2.7872 0.664942 1.44218
1 56 -2.15407 0.0730006 0.982876
1 1 1.8683 -0.358283 -0.396759
1 8 5.47028 0.470895 1.37922
1 7 4.79459 -0.239012 1.17071
1 17 2.25756 1.41736 0.875038
1 9 5.23574 1.43573 1.25361
1 15 3.28558 2.86208 0.954957
1 10 4.45828 1.69728 0.662075
1 39 -1.62572 3.0258 0.756215
1 26 1.79122 3.90241 1.0077
1 55 -2.00607 0.266554 1.96001
1 32 -1.52793 2.9713 2.2937
1 16 2.75522 2.13597 1.38393
1 38 -1.97416 3.54002 1.55644
1 31 -0.77785 3.40029 1.77902
1 29 0.752971 3.42268 2.55442
1 28 1.66251 3.01155 2.70137
1 37 -2.71861 4.00059 2.06547
1 30 -0.147079 3.85248 2.39533
1 27 2.00152 3.46056 1.87933
1 33 -2.33477 2.5538 2.71698
1 34 -2.89701 3.00705 3.42086
1 36 -3.49013 3.99675 2.68367
1 35 -3.05334 3.99151 3.58602
ITEM: TIMESTEP
50000
ITEM: NUMBER OF ATOMS
80
ITEM: BOX BOUNDS ff ff ff
-2.0000000000000000e+01 2.0000000000000000e+01
-2.0000000000000000e+01 2.0000000000000000e+01
-4.0000000000000000e+01 4.0000000000000000e+01
ITEM: ATOMS type id x y z
1 47 -2.75824 0.858046 -3.87597
1 46 -2.03072 1.10765 -4.50664
1 45 -2.20185 1.98662 -4.97448
1 48 -3.56025 1.1523 -3.33544
1 44 -2.35335 2.21402 -4.0184
1 65 -2.56842 0.0371585 -1.82171
1 66 -1.634 -0.243592 -2.07819
1 49 -3.47055 0.461611 -2.63118
1 42 -1.90938 2.23093 -2.21462
1 43 -1.86215 2.49243 -3.182
1 72 -1.74591 -2.91028 -0.836801
1 63 -2.85693 -1.56557 -0.733571
1 71 -1.16669 -2.10373 -0.797152
1 64 -2.90795 -0.712765 -1.26991
1 70 -0.615932 -1.44561 -1.3099
1 69 -0.176752 -1.21715 -0.445747
1 67 -1.45892 0.0280086 -1.12176
1 68 -0.692593 -0.382784 -0.605964
1 1 2.03355 -0.143907 -0.659754
1 51 -3.35887 1.23022 -0.948469
1 50 -3.63867 0.599672 -1.66825
1 58 -1.9496 0.49749 -0.413619
1 41 -2.05579 1.89962 -1.263
1 19 0.737341 2.08206 -0.371584
1 12 3.56376 2.48076 -1.34634
1 11 3.58946 1.98264 -0.489868
1 25 1.36311 3.54174 -0.801396
1 13 3.54819 2.98715 -0.477059
1 77 -0.298721 -4.23058 0.126932
1 73 -1.96547 -2.79123 0.11986
1 79 0.628912 -2.7591 1.0587
1 62 -3.67103 -1.90302 -0.23734
1 80 0.924669 -2.8584 0.124621
1 61 -2.76781 -1.79316 0.200971
1 60 -2.20016 -0.985382 0.329334
1 59 -2.53776 -0.290332 -0.289678
1 2 2.50158 -0.866675 -0.171894
1 52 -3.30798 1.59993 -0.0252316
1 57 -0.998063 0.57222 -0.146273
1 17 2.15863 1.68731 0.559208
1 10 4.41559 1.78493 0.0575074
1 40 -2.31753 2.25422 -0.364675
1 20 -0.171973 2.42412 -0.115708
1 18 1.18997 1.96436 0.51724
1 16 2.71208 2.42045 0.188815
1 24 0.610432 3.41222 -0.162167
1 21 -0.801972 3.05446 0.344838
1 23 0.301653 2.97748 0.704919
1 15 2.17472 3.14094 0.633709
1 14 3.13738 3.24245 0.397744
1 26 2.07518 3.96684 -0.246047
1 76 -0.249731 -4.04423 1.10093
1 78 0.257072 -3.59447 0.664374
1 74 -1.53491 -3.05453 0.984543
1 75 -1.07416 -3.73375 1.58348
1 54 -2.47926 0.434654 1.37047
1 3 2.82137 -0.202857 0.499168
1 4 3.54909 0.175698 1.08783
1 5 3.80048 0.999337 0.594491
1 53 -2.955 1.0407 0.741874
1 56 -1.13845 0.433427 0.843054
1 8 4.57867 1.10385 1.59187
1 6 4.70427 0.604625 0.756291
1 9 4.56459 1.9263 1.02579
1 39 -2.63318 2.43578 0.554458
1 22 -0.504064 2.86664 1.26212
1 27 1.28501 4.03532 0.380712
1 55 -1.62577 -0.0721753 1.55253
1 7 4.69308 0.102978 1.62542
1 38 -2.88359 3.15541 1.20952
1 37 -2.74982 3.74495 2.0116
1 30 0.106979 2.9477 2.155
1 29 0.803217 3.43023 1.6138
1 28 1.58712 3.94973 1.33222
1 36 -3.37947 3.58688 2.76485
1 35 -3.95696 3.23686 3.49496
1 32 -1.62619 3.03611 2.80937
1 33 -2.40581 2.80045 3.39196
1 31 -0.625023 3.00939 2.83026
1 34 -3.13377 3.01809 4.03078
ITEM: TIMESTEP
55000
ITEM: NUMBER OF ATOMS
80
ITEM: BOX BOUNDS ff ff ff