ITEM: TIMESTEP
0
ITEM: NUMBER OF ATOMS
80
ITEM: BOX BOUNDS ff ff ff
-2.0000000000000000e+01 2.0000000000000000e+01
-2.0000000000000000e+01 2.0000000000000000e+01
-4.0000000000000000e+01 4.0000000000000000e+01
ITEM: ATOMS type id x y z
1 80 -0.47803 -4.085 -0.596936
1 68 -3.41634 -3.2224 -0.611913
1 69 -3.16955 -3.35875 -0.648425
1 73 -2.1778 -3.77099 -0.568829
1 61 -5.02787 -1.82941 -0.957158
1 62 -4.81868 -2.07798 -0.716046
1 8 6.20031 2.67447 -0.837081
1 10 6.01891 3.47489 -0.955271
1 45 -5.88504 3.87129 -0.762589
1 42 -5.31235 5.01265 -0.640086
1 14 5.31272 5.01207 -0.589197
1 28 0.000365982 7.9 -0.815824
1 26 0.915977 7.83377 -0.881388
1 21 3.06772 7.1111 -0.656768
1 74 -1.93131 -3.84435 -0.248517
1 75 -1.68601 -3.90724 0.055985
1 76 -1.44201 -3.96031 -0.301562
1 77 -1.19933 -4.00414 0.528027
1 78 -0.957883 -4.03925 0.220752
1 79 -0.717522 -4.06609 0.47652
1 65 -4.14107 -2.72297 -0.228425
1 67 -3.66117 -3.07138 -0.34613
1 70 -2.92166 -3.48107 -0.317396
1 71 -2.67337 -3.59006 0.364029
1 72 -2.42527 -3.68646 -0.0118263
1 64 -4.37386 -2.52462 -0.393429
1 59 -5.41222 -1.28215 -0.253526
1 60 -5.22624 -1.56406 -0.428295
1 55 -6.00018 0.000555938 0.19117
1 56 -5.87977 -0.341901 -0.088372
1 2 6.10013 0.355282 -0.0717076
1 51 -6.26466 1.48532 -0.359713
1 52 -6.23383 1.09976 -0.0922737
1 53 -6.17862 0.722736 -0.111947
1 3 6.17851 0.722143 -0.0629778
1 4 6.23376 1.09915 0.0307284
1 5 6.26463 1.4847 0.259797
1 48 -6.20022 2.6751 -0.353784
1 49 -6.24875 2.27494 0.205573
1 50 -6.26996 1.87768 -0.395057
1 6 6.26997 1.87705 -0.0348432
1 7 6.24881 2.27431 -0.0153736
1 46 -6.01872 3.47553 0.384527
1 47 -6.12369 3.07604 0.272497
1 9 6.12383 3.0754 0.494996
1 43 -5.53158 4.64223 0.470128
1 11 5.88528 3.87066 0.0514697
1 12 5.72289 4.26036 -0.100827
1 13 5.53191 4.64163 -0.0799878
1 41 -5.06554 5.36989 -0.0145083
1 40 -4.79196 5.71162 0.482214
1 15 5.06595 5.36933 -0.377146
1 37 -3.82234 6.62144 0.449381
1 38 -4.16899 6.33952 -0.384462
1 39 -4.49269 6.03555 0.203044
1 36 -3.45442 6.87935 -0.128019
1 20 3.45502 6.87896 -0.453413
1 19 3.82291 6.62101 -0.0358324
1 35 -3.06709 7.11145 -0.15525
1 33 -2.24245 7.4918 0.495494
1 34 -2.66237 7.31608 0.0564417
1 30 -0.915254 7.83388 -0.0755936
1 27 0.459509 7.8834 -0.218347
1 29 -0.458779 7.88345 0.217407
1 25 1.36713 7.75148 0.4468
1 24 1.81035 7.63713 0.494368
1 66 -3.90311 -2.90508 0.804348
1 63 -4.60019 -2.30969 0.664595
1 57 -5.74059 -0.67042 0.862604
1 58 -5.5842 -0.984083 0.546904
1 54 -6.10028 0.355857 0.65023
1 1 6 0 0.990403
1 44 -5.72261 4.26098 0.962331
1 16 4.79242 5.71109 0.614466
1 17 4.49319 6.03505 0.658247
1 18 4.16953 6.33906 0.945315
1 32 -1.80965 7.63734 0.832931
1 31 -1.36641 7.75164 0.673984
1 22 2.66302 7.31578 0.609796
1 23 2.24313 7.49155 0.978883
ITEM: TIMESTEP
5000
ITEM: NUMBER OF ATOMS
80
ITEM: BOX BOUNDS ff ff ff
-2.0000000000000000e+01 2.0000000000000000e+01
-2.0000000000000000e+01 2.0000000000000000e+01
-4.0000000000000000e+01 4.0000000000000000e+01
ITEM: ATOMS type id x y z
1 69 -2.43944 -3.79738 -1.69913
1 70 -2.95728 -4.40499 -1.11221
1 71 -2.37948 -3.8101 -0.549209
1 72 -1.51429 -4.30694 -0.444805
1 68 -2.37293 -2.99355 -1.10659
1 63 -5.79123 -2.54903 -0.813459
1 62 -6.05477 -2.20158 -1.70019
1 61 -5.14195 -1.80398 -1.61065
1 60 -5.15831 -1.01358 -0.987996
1 52 -6.5162 0.632355 -1.07546
1 7 5.67141 1.77803 -0.0648307
1 47 -6.28638 2.3978 -0.799879
1 12 5.66378 3.45279 -0.15118
1 14 4.07385 3.55358 -0.791454
1 15 4.85776 4.17273 -0.75811
1 25 1.5488 6.44935 -0.509195
1 24 1.77728 5.68541 -1.08973
1 21 3.85882 6.64747 -0.291084
1 73 -1.51074 -4.46141 0.536472
1 78 0.576818 -4.20515 -0.824718
1 77 -0.0100641 -4.1357 -0.0171605
1 74 -0.771322 -4.09239 1.09866
1 67 -3.26016 -2.61022 -0.908227
1 79 0.276833 -3.29716 -0.527005
1 64 -5.23257 -2.25827 -0.0360499
1 65 -4.29243 -2.45918 0.239375
1 66 -4.11339 -3.00627 -0.569553
1 80 -0.251794 -2.58543 -0.96592
1 59 -5.14547 -1.07525 0.0151265
1 58 -5.75204 -0.375463 0.40616
1 53 -5.88588 0.840049 -0.327576
1 2 4.9692 0.141113 0.346704
1 51 -6.48835 1.28446 -0.32648
1 54 -5.14933 0.901977 0.337534
1 4 6.29201 1.09393 0.281709
1 50 -5.92728 2.00336 0.0582327
1 48 -5.52542 2.4114 -0.156664
1 49 -5.11646 1.96617 0.652469
1 8 4.81225 2.2776 -0.0470583
1 6 6.27327 2.24927 0.58898
1 46 -6.75492 2.71623 0.0292395
1 9 5.388 3.08968 -0.230414
1 13 4.76685 3.89136 -0.161072
1 11 5.81862 3.50118 0.826838
1 10 6.21856 3.62124 -0.0803888
1 45 -6.97873 3.5471 0.507458
1 43 -5.39262 4.14733 0.127916
1 41 -4.96902 5.8093 0.201972
1 42 -4.69328 4.85786 0.116455
1 16 4.90998 5.02506 -0.227863
1 39 -3.74152 7.25171 0.821172
1 37 -2.55982 6.43824 -0.284963
1 33 -1.83448 6.88888 0.599606
1 26 1.12272 6.89523 0.301897
1 23 2.03027 6.42553 -0.498014
1 22 2.88095 6.7662 -0.0894887
1 20 3.07482 6.06395 -0.519282
1 38 -3.15688 7.18345 0.0142226
1 32 -1.37711 7.63836 0.146789
1 29 -1.01961 7.63705 0.977299
1 30 -1.5832 8.11563 0.276737
1 31 -1.05631 8.25966 -0.569762
1 76 -0.897967 -4.37318 0.375056
1 75 -0.366818 -3.52657 0.3781
1 57 -6.18164 -0.102874 1.28738
1 56 -5.20642 0.0154368 1.37654
1 55 -4.46542 0.582045 1.00543
1 1 5.36377 -0.742595 0.618979
1 3 5.38379 0.991809 0.672852
1 5 6.81709 1.49078 1.02005
1 44 -6.22324 4.16759 0.694183
1 19 2.60861 5.94564 0.353493
1 17 4.45504 5.41472 0.586078
1 40 -4.43584 6.55053 0.617442
1 36 -2.93679 6.99405 0.454724
1 35 -2.99587 6.2105 1.06915
1 34 -2.04791 5.95523 0.887729
1 18 3.5661 5.83858 0.631542
1 28 -0.210271 7.29022 1.47457
1 27 0.736824 7.15811 1.18082
ITEM: TIMESTEP
10000
ITEM: NUMBER OF ATOMS
80
ITEM: BOX BOUNDS ff ff ff
-2.0000000000000000e+01 2.0000000000000000e+01
-2.0000000000000000e+01 2.0000000000000000e+01
-4.0000000000000000e+01 4.0000000000000000e+01
ITEM: ATOMS type id x y z
1 69 -3.26723 -2.62784 -2.38282
1 70 -3.15631 -3.51041 -1.92123
1 68 -2.95788 -2.19477 -1.54593
1 71 -2.31569 -3.65415 -1.40907
1 72 -1.42624 -4.10256 -1.3246
1 62 -5.11068 -1.72949 -1.2279
1 67 -3.7306 -2.37638 -0.941297
1 79 0.0480241 -2.16666 -1.08322
1 80 0.479042 -1.41495 -1.59347
1 52 -5.18602 -0.773141 -0.785322
1 61 -4.18312 -1.35289 -1.22073
1 51 -5.64111 -0.0475978 -1.28921
1 53 -4.69564 0.0950412 -0.675072
1 50 -5.27194 0.86248 -1.08104
1 49 -5.00087 1.81019 -0.869857
1 48 -4.75803 2.74351 -1.09477
1 10 6.06506 2.81329 -0.827783
1 14 4.60903 3.75082 -1.63749
1 15 4.20559 4.52573 -1.13552
1 37 -3.86683 5.05187 -0.535074
1 16 3.51084 4.94259 -0.533297
1 38 -3.58313 5.99914 -0.374251
1 66 -4.1525 -2.28219 -0.0391969
1 73 -1.06278 -3.52204 -0.593964
1 74 -1.15172 -3.63376 0.406273
1 78 -0.358068 -2.54419 -0.238512
1 77 0.189918 -3.36736 -0.123094
1 64 -4.74029 -1.86046 0.323257
1 65 -4.32538 -2.56194 0.896931
1 63 -4.59288 -2.28461 -0.569676
1 60 -3.77846 -0.951487 -0.396017
1 59 -4.11601 -0.359533 0.321935
1 54 -3.80566 0.453796 -0.383942
1 55 -3.54186 1.3129 0.0386511
1 5 5.61301 0.583098 0.0549492
1 7 5.60154 1.66711 0.473046
1 6 6.37968 1.24414 0.0223599
1 8 4.97693 1.32297 -0.228203
1 9 5.5819 2.13168 -0.26541
1 45 -6.89654 3.39508 0.347155
1 46 -6.28505 3.0864 -0.398292
1 47 -5.42414 3.40839 -0.782435
1 12 4.56267 3.10506 0.0265635
1 13 4.38295 3.06207 -0.950835
1 11 5.56745 3.02542 0.0186539
1 36 -2.88836 5.10453 -0.284707
1 33 -1.7709 5.50403 0.222151
1 25 1.26925 4.89182 0.135103
1 24 1.19823 5.83574 -0.182038
1 17 3.88196 4.87943 0.396326
1 39 -3.44958 6.57193 0.432544
1 31 -1.73283 6.98326 0.674192
1 23 1.48229 6.44744 0.592694
1 75 -1.03698 -4.58733 0.670883
1 76 -0.281194 -3.92587 0.513818
1 1 5.73417 -0.310958 1.09571
1 57 -3.9534 0.300895 1.33091
1 58 -4.07984 -0.689804 1.25457
1 3 4.18567 0.658612 1.22811
1 56 -3.47606 1.10984 0.994264
1 4 5.14343 0.634141 0.936914
1 44 -6.3006 4.16963 0.412917
1 43 -5.3422 4.15795 0.143379
1 42 -5.02029 4.7429 0.8833
1 18 3.06281 4.86741 0.984245
1 41 -4.27197 5.38656 0.707888
1 34 -1.98537 5.32514 1.18675
1 35 -2.52476 4.76218 0.56973
1 26 0.728783 5.17712 0.913626
1 19 3.31057 5.82591 0.798217
1 40 -3.61785 5.967 1.2143
1 32 -1.29803 6.37003 0.0110043
1 27 0.135987 5.91936 1.19571
1 22 2.12839 7.14545 0.831048
1 20 2.60608 6.17988 1.41867
1 21 3.07643 6.89177 0.932826
1 30 -1.38387 7.68595 1.27411
1 29 -1.17337 6.90484 1.87887
1 28 -0.241245 6.56874 1.87341
1 2 5.03994 0.256781 1.55761
ITEM: TIMESTEP
15000
ITEM: NUMBER OF ATOMS
80
ITEM: BOX BOUNDS ff ff ff
-2.0000000000000000e+01 2.0000000000000000e+01
-2.0000000000000000e+01 2.0000000000000000e+01
-4.0000000000000000e+01 4.0000000000000000e+01
ITEM: ATOMS type id x y z
1 70 -2.62733 -3.01726 -1.30968
1 71 -1.65189 -3.17386 -1.23953
1 50 -4.37991 1.05455 -1.31
1 72 -0.919645 -2.81962 -0.648109
1 78 0.658752 -3.00128 -0.801195
1 79 0.982101 -2.38576 -1.52211
1 62 -5.90319 -2.20708 -1.1336
1 68 -2.86147 -2.6914 -1.03795
1 69 -2.52377 -2.14361 -1.79862
1 80 1.79445 -1.80085 -1.62236
1 61 -5.11341 -1.64581 -0.87156
1 60 -4.83034 -0.684457 -0.890219
1 53 -3.78831 0.941899 -0.645684
1 51 -5.18824 0.593532 -0.920177
1 49 -4.78819 1.91386 -1.63461
1 6 3.98833 0.847813 -1.02921
1 48 -5.73216 2.22341 -1.57143
1 7 4.18999 1.76372 -0.676609
1 46 -5.5048 3.11077 -0.247365
1 47 -5.03747 2.70416 -1.04405
1 15 3.20302 3.65439 -1.38686
1 14 4.14594 3.3771 -1.17566
1 8 4.98538 2.35724 -0.585826
1 76 -0.596848 -3.81706 0.115744
1 74 -0.712264 -3.27746 0.0286662
1 77 0.317946 -3.42439 0.0425912
1 67 -3.80354 -2.55083 -0.729931
1 73 -0.654118 -2.2847 0.144563
1 63 -5.42235 -2.32848 -0.269228
1 66 -3.57495 -2.30844 0.205683
1 59 -4.06137 -0.75254 -0.26874
1 64 -4.7458 -1.69144 0.0428329
1 52 -4.68023 1.01116 -0.172135
1 58 -3.15275 -0.33532 -0.137433
1 54 -3.40753 1.81742 -0.413525
1 4 3.81269 1.40708 0.105247
1 5 4.11702 0.48161 -0.104624
1 9 5.90855 2.04299 -0.412892
1 16 2.83489 3.65552 -0.468234
1 13 4.21501 3.73079 -0.241377
1 10 6.55649 2.75478 -0.139354
1 11 5.9192 3.51168 -0.340317
1 45 -5.23682 4.08105 -0.244713
1 44 -5.00241 3.68157 0.646768
1 37 -2.25486 4.94034 -0.441437
1 36 -2.63407 4.21454 0.155827
1 35 -1.70839 3.86953 0.017252
1 25 0.963668 3.85653 0.0312078
1 12 5.10186 3.63095 0.20474
1 39 -3.62525 5.50289 0.371935
1 34 -1.92607 4.81793 -0.212895
1 33 -1.84387 5.66835 0.285993
1 24 1.08987 4.7886 0.342116
1 31 -1.03267 6.4646 0.196169
1 75 -0.828129 -3.4575 1.00916
1 65 -4.14035 -1.77225 0.842719
1 57 -2.42209 -0.394718 0.539498
1 1 5.36368 -0.310366 0.910127
1 55 -2.78963 1.27898 0.131615
1 56 -2.66795 0.536421 0.775638
1 3 4.10431 1.10959 1.01727
1 2 4.50987 0.199843 1.03163
1 17 3.05819 4.08049 0.413209
1 41 -4.54975 4.89481 1.54268
1 42 -4.10552 4.13077 2.0318
1 43 -4.19859 3.53695 1.21109
1 38 -2.72234 5.09063 0.434785
1 26 0.329595 3.90054 0.808772
1 18 2.88932 3.83567 1.37598
1 40 -4.09704 4.67686 0.679055
1 23 0.677146 5.61792 0.758084
1 20 1.88693 5.51548 1.33544
1 19 2.54647 4.76849 1.3262
1 32 -2.00643 6.66099 0.323794
1 30 -0.867393 6.65532 1.16658
1 22 0.89924 6.24474 1.49242
1 21 1.85411 6.48486 1.59457
1 27 0.32715 4.27924 1.73371
1 28 0.302864 5.2655 1.93816
1 29 -0.405801 5.87448 1.60825
ITEM: TIMESTEP
20000
ITEM: NUMBER OF ATOMS
80
ITEM: BOX BOUNDS ff ff ff
-2.0000000000000000e+01 2.0000000000000000e+01
-2.0000000000000000e+01 2.0000000000000000e+01
-4.0000000000000000e+01 4.0000000000000000e+01
ITEM: ATOMS type id x y z
1 70 -2.49382 -3.12398 -0.888002
1 71 -1.73017 -3.30981 -1.51286
1 69 -2.49361 -2.14092 -1.07646
1 62 -4.42184 -2.71427 -0.677763
1 63 -3.59798 -3.2949 -0.656491
1 72 -1.23038 -3.4559 -0.657472
1 61 -4.41914 -2.05614 -1.42898
1 78 0.330862 -1.79222 -0.799615
1 79 -0.0241633 -1.19856 -1.52441
1 60 -3.83194 -1.28381 -1.1887
1 68 -2.29806 -1.22312 -0.771511
1 80 0.650441 -0.649446 -1.04362
1 50 -4.91147 0.288905 -1.26339
1 51 -4.62256 0.635645 -0.372214
1 49 -4.27282 1.02186 -1.43605
1 5 3.38651 1.27611 -1.33072
1 6 4.26293 1.15086 -1.73594
1 48 -4.82297 1.70249 -0.956624
1 47 -4.65375 2.46959 -0.343696
1 7 4.96429 1.87037 -1.8062
1 46 -4.24886 3.23767 0.148999
1 15 2.62695 3.69388 -1.47451
1 34 -1.0059 4.5617 -0.344299
1 14 3.60223 3.7972 -1.66637
1 13 4.34372 4.0409 -1.04469
1 73 -0.920876 -3.49396 0.297869
1 77 0.307814 -2.73748 -0.480833
1 64 -4.23957 -2.96355 0.0385396
1 66 -3.05459 -2.36247 0.68903
1 67 -2.70795 -1.80111 -0.0592492
1 76 -0.315293 -2.71096 0.309223
1 59 -4.09029 -0.610256 -0.488364
1 2 3.17612 0.327365 -0.120243
1 1 3.62796 -0.288422 0.511036
1 52 -3.82059 1.2103 -0.569316
1 53 -3.70828 1.85171 0.187492
1 54 -3.30826 0.952148 0.355474
1 3 3.24874 1.13621 0.465799
1 4 2.92502 1.03783 -0.47773
1 8 5.30535 2.23088 -0.923726
1 9 5.96863 2.03506 -0.211506
1 45 -4.18704 3.24862 -0.852041
1 44 -3.66354 3.53546 -0.0357061
1 25 -0.16257 3.20965 0.351158
1 17 2.59956 3.26898 -0.00143403
1 12 4.9997 3.64499 -0.402999
1 11 5.76242 3.0302 -0.3904
1 10 6.39082 2.74879 0.346423
1 35 -1.24271 3.88126 0.335426
1 24 0.480946 3.76886 0.82658
1 16 2.00756 3.6434 -0.703855
1 33 -1.16962 5.54824 -0.293383
1 32 -1.72506 6.0003 0.410984
1 65 -3.77358 -2.08142 0.0325762
1 74 -0.531447 -2.66669 0.679384
1 75 -0.620312 -1.75061 0.310759
1 58 -3.5996 -0.71636 0.369029
1 57 -3.35071 -0.704728 1.32273
1 56 -2.39832 -0.497693 1.07876
1 55 -2.52595 0.423197 0.698154
1 36 -1.96777 3.22509 0.524151
1 26 -0.40772 2.80756 1.23222
1 27 0.0912743 3.65918 1.40551
1 43 -3.70432 4.00618 0.83727
1 37 -2.76856 3.81889 0.417507
1 28 -0.40336 4.53594 1.48662
1 19 2.41667 4.91978 0.662639
1 18 2.85904 4.01441 0.599336
1 42 -4.10171 4.6935 1.43197
1 39 -2.67535 5.40055 0.682855
1 38 -2.72967 4.51975 1.14727
1 29 -1.12986 5.21077 1.2525
1 23 1.14231 4.51271 0.756326
1 22 1.6389 5.30372 1.14372
1 20 1.65679 5.10345 1.27689
1 21 2.49105 5.52428 1.58695
1 31 -1.89952 5.96228 1.38702
1 30 -1.63144 5.31178 2.1192
1 41 -3.74874 5.19021 2.22155
1 40 -3.38792 5.54527 1.34479
ITEM: TIMESTEP
25000
ITEM: NUMBER OF ATOMS
80
ITEM: BOX BOUNDS ff ff ff
-2.0000000000000000e+01 2.0000000000000000e+01
-2.0000000000000000e+01 2.0000000000000000e+01
-4.0000000000000000e+01 4.0000000000000000e+01
ITEM: ATOMS type id x y z
1 69 -2.98845 -2.27539 -1.90938
1 8 4.14423 1.11822 -1.29262
1 14 2.439 2.68191 -1.36742
1 71 -1.38922 -2.98171 -1.19007
1 72 -0.435328 -3.11877 -0.898535
1 61 -4.86319 -1.76785 -0.775411
1 70 -2.3409 -2.88231 -1.46797
1 68 -2.50329 -1.41293 -1.87347
1 77 0.389612 -1.58812 -0.234348
1 60 -4.43019 -1.20025 -1.46563
1 59 -3.72427 -0.712651 -0.970465
1 58 -2.80339 -0.481156 -1.28123
1 67 -2.63835 -1.70868 -0.930427
1 79 -0.0626879 -0.872793 -1.23762
1 50 -4.7224 -0.046953 -0.813903
1 80 0.810215 -0.525894 -0.91454
1 49 -4.51252 0.935911 -0.842375
1 48 -4.66684 1.91709 -0.745088
1 6 3.16443 1.09285 -1.27809
1 47 -3.72949 1.96877 -0.42147
1 7 3.66123 1.65928 -0.618053
1 9 4.65237 1.93161 -1.58435
1 10 4.72765 2.74535 -1.00302
1 13 3.36029 2.67821 -0.95576
1 16 2.88022 3.13796 -0.410935
1 11 5.01196 3.709 -1.08263
1 15 2.80808 3.60772 -1.30244
1 63 -4.15224 -3.38011 -0.384117
1 64 -3.57011 -2.67184 0.0433873
1 73 -1.17241 -3.22855 -0.245848
1 62 -4.89026 -2.74102 -0.550192
1 65 -3.14173 -1.9335 0.580701
1 66 -2.33179 -1.80342 0.0105502
1 74 -0.2934 -2.8047 -0.00315892
1 75 0.106076 -1.91072 0.274603
1 76 0.963844 -1.52129 0.588635
1 57 -2.53397 -0.785382 -0.374006
1 78 -0.338662 -1.77281 -0.896968
1 51 -4.10959 -0.171036 -0.0397891
1 52 -3.36983 0.285078 0.449572
1 55 -2.56413 0.72548 0.664426
1 3 3.12247 -0.343236 0.310079
1 2 4.00152 0.134115 0.410506
1 53 -2.84035 1.06839 0.174605
1 54 -2.52879 1.7196 0.859162
1 5 2.54326 0.754217 -0.566646
1 4 2.53493 0.451231 0.395454
1 12 4.30343 3.03424 -0.870266
1 46 -3.66364 2.93761 -0.637025
1 45 -3.3164 3.76386 -0.211562
1 35 -0.589388 2.81968 -0.477826
1 36 -1.06221 2.89633 0.399331
1 17 1.93771 2.95423 -0.140976
1 44 -3.99144 4.14195 0.417792
1 34 0.00893486 3.61915 -0.461098
1 33 -0.401392 4.2197 0.224877
1 43 -4.25158 5.08361 0.239261
1 42 -3.44837 5.35504 0.771361
1 56 -2.60075 -0.266641 0.476928
1 1 3.99002 0.139584 1.40586
1 41 -3.39789 4.64588 1.47353
1 37 -1.52467 3.74207 0.66556
1 18 2.50279 3.69405 0.25336
1 20 2.0945 4.94904 0.30043
1 19 2.70404 4.43296 0.890877
1 39 -2.39044 5.30759 0.488419
1 40 -3.36454 5.2378 0.662861
1 38 -2.26949 4.36931 0.830883
1 31 -1.12048 4.93672 1.79674
1 32 -0.975959 4.79175 0.815359
1 22 1.60007 4.96639 1.58282
1 21 2.03132 5.64935 0.994603
1 26 -0.565761 2.76545 2.3157
1 28 -0.636961 4.11544 1.66281
1 25 0.0608275 3.0986 1.62771
1 27 -0.317095 3.70403 2.50782
1 29 -1.5311 4.55915 1.77012
1 24 0.496229 3.99156 1.64263
1 23 1.04553 4.53681 2.27522
1 30 -1.3294 4.68603 2.74249
ITEM: TIMESTEP
30000
ITEM: NUMBER OF ATOMS
80
ITEM: BOX BOUNDS ff ff ff
-2.0000000000000000e+01 2.0000000000000000e+01
-2.0000000000000000e+01 2.0000000000000000e+01
-4.0000000000000000e+01 4.0000000000000000e+01
ITEM: ATOMS type id x y z
1 70 -1.49781 -2.90464 -2.61463
1 71 -2.02168 -3.06176 -1.78065
1 69 -1.88833 -2.37186 -1.86522
1 79 0.328056 -2.51607 -1.96369
1 80 1.22437 -2.69034 -2.41839
1 50 -3.58055 0.691897 -1.69788
1 9 3.6876 0.77634 -2.30125
1 10 3.80991 1.76379 -2.42109
1 13 2.40427 3.17584 -1.08986
1 62 -4.05536 -2.58168 -0.579386
1 72 -1.29663 -3.23117 -1.11118
1 73 -0.653139 -3.72487 -0.542479
1 61 -3.74498 -2.1305 -1.41695
1 68 -2.37861 -1.81728 -1.16713
1 77 0.236761 -1.76603 -0.835553
1 78 0.409579 -1.53014 -1.79529
1 60 -3.49498 -1.17247 -1.52819
1 59 -2.64612 -0.749002 -1.80221
1 58 -1.66199 -0.818016 -1.65603
1 51 -3.89652 1.02644 -0.82421
1 49 -3.64473 1.50596 -1.11422
1 4 1.79729 0.785937 -0.554136
1 8 3.7559 1.1046 -1.35693
1 14 1.70725 2.44325 -0.969054
1 15 1.89198 2.08193 -0.0613976
1 12 3.36936 3.11758 -1.36226
1 11 4.02697 2.62233 -1.94328
1 63 -3.80098 -2.60233 0.392122
1 74 0.0258728 -3.08554 -0.159459
1 64 -3.20075 -1.8161 0.187172
1 65 -3.1787 -2.78617 -0.0586497
1 67 -2.47733 -1.53361 -0.208418
1 66 -2.60097 -2.20261 0.535043
1 76 -0.363637 -1.89162 -0.0388119
1 57 -1.42012 -0.895549 -0.690507
1 52 -3.54746 0.536053 -0.0225861
1 53 -3.09142 -0.0964439 0.590166
1 3 2.37975 -0.0157133 -0.458678
1 2 3.09613 -0.409986 0.112287
1 5 1.76089 1.03825 0.423529
1 7 3.17471 1.60052 -0.705032
1 48 -3.45629 1.82194 -0.189392
1 47 -3.41748 2.72736 0.207909
1 46 -4.13194 3.06359 0.815869
1 6 2.38921 1.09176 -0.342762
1 16 1.02156 2.14787 0.420775
1 45 -3.91843 4.01956 0.642065
1 36 -1.4774 3.74922 0.0332055
1 35 -0.506168 3.53458 0.172552
1 17 0.851912 3.12185 0.549186
1 18 1.4656 3.74353 0.0585868
1 34 -0.444074 4.50197 -0.0753163
1 19 2.2859 3.78368 0.636497
1 20 2.62966 4.66514 0.308558
1 33 -0.152595 5.32451 0.370206
1 75 0.446355 -2.32901 0.37263
1 56 -1.01137 -0.678326 0.202951
1 54 -2.22719 0.227369 0.942842
1 1 3.88957 0.0186826 0.573509
1 55 -1.41052 0.224689 0.378114
1 26 0.0494673 2.71437 1.45842
1 43 -3.99965 5.11924 1.45878
1 44 -3.76958 4.14414 1.63429
1 41 -2.56396 4.37023 1.6632
1 40 -2.00671 4.56821 0.860748
1 37 -1.03414 4.53774 0.472045
1 38 -1.32725 5.36512 0.964547
1 21 2.35113 4.54162 1.25854
1 39 -2.22437 5.3982 1.38469
1 32 -0.0932691 5.02881 1.33136
1 28 -0.877251 3.44978 2.03921
1 25 -0.377996 3.36062 2.10213
1 27 0.0158127 3.1497 2.36851
1 42 -3.35522 4.76886 2.11901
1 30 -1.15814 4.82319 1.82728
1 29 -1.69312 4.02855 2.15559
1 24 0.10707 4.15159 2.45484
1 23 1.04395 4.1146 2.07398
1 31 -0.335582 5.15516 2.28761
1 22 1.90006 4.61625 2.15193
ITEM: TIMESTEP
35000
ITEM: NUMBER OF ATOMS
80
ITEM: BOX BOUNDS ff ff ff
-2.0000000000000000e+01 2.0000000000000000e+01
-2.0000000000000000e+01 2.0000000000000000e+01
-4.0000000000000000e+01 4.0000000000000000e+01
ITEM: ATOMS type id x y z
1 70 -1.88206 -2.57927 -1.5403
1 50 -4.06761 0.845589 -1.51929
1 49 -3.34287 1.46094 -1.82187
1 9 3.06365 1.2411 -1.862
1 11 3.11923 2.94293 -2.33904
1 10 3.50583 2.02063 -2.3096
1 12 2.97905 2.22081 -1.68375
1 62 -3.87729 -2.58378 -0.587136
1 68 -1.82992 -3.06467 -0.472059
1 69 -1.06244 -2.92134 -1.09245
1 72 -0.44193 -2.8961 -0.579265
1 61 -3.04771 -2.0682 -0.810521
1 60 -2.44917 -1.35832 -1.14507
1 71 -0.979308 -2.33572 -1.20139
1 80 -0.47487 -1.21929 -1.25942
1 59 -1.79955 -0.705778 -1.5212
1 79 0.47456 -1.22512 -1.56489
1 78 1.19383 -1.57876 -0.974707
1 51 -4.28683 0.904457 -0.528047
1 58 -1.63033 -0.0141071 -0.812205
1 4 1.81134 0.222586 -1.11051
1 48 -3.24724 2.11857 -1.07717
1 8 3.01357 0.96994 -0.904925
1 14 1.29521 2.26507 -1.4007
1 13 2.05121 1.87818 -1.94345
1 18 1.6658 3.00018 -0.328793
1 67 -1.3274 -3.14715 0.384652
1 63 -4.65935 -2.64215 0.0169676
1 64 -3.85243 -2.06283 0.140538
1 65 -2.84587 -1.97821 0.188975
1 73 -0.426556 -2.06572 -0.0277502
1 76 0.370796 -1.43645 0.707759
1 77 0.530964 -1.36215 -0.262736
1 57 -1.64835 -0.238871 0.149143
1 3 2.32298 0.153955 -0.244116
1 1 3.04222 -0.251436 0.0753693
1 52 -3.48678 0.754503 0.0508356
1 5 1.95424 0.949506 -0.438711
1 7 2.60341 1.65978 -0.318359
1 47 -2.73225 2.06426 -0.224762
1 16 0.865815 1.96034 0.25543
1 6 2.33444 1.13795 0.474066
1 46 -2.86211 3.06206 -0.349049
1 36 -1.27733 3.007 0.168527
1 35 -0.7586 3.75976 -0.258211
1 34 0.208321 3.65254 -0.0296367
1 15 1.55663 2.00135 -0.473949
1 17 1.25051 2.81519 0.561246
1 19 2.47825 3.47354 0.0397627
1 45 -3.36229 3.88024 -0.0638264
1 37 -1.8176 3.77211 0.449211
1 40 -2.14623 4.50692 0.23377
1 20 1.81766 4.22768 0.0598676
1 39 -1.22503 4.85455 0.0693257
1 66 -2.01243 -2.52466 0.0299326
1 74 -0.880813 -2.20869 0.84223
1 56 -2.39213 -0.616917 0.713638
1 55 -1.67057 -0.926829 1.33889
1 75 -0.520101 -1.30401 1.13837
1 53 -2.83192 0.157306 0.474251
1 54 -2.01446 -0.0285179 1.0523
1 2 2.1805 -0.753188 0.13292
1 26 -0.101299 1.9112 1.36793
1 27 -0.121753 2.87352 1.08683
1 44 -3.70354 4.65389 0.445628
1 41 -2.41821 4.22858 1.1494
1 38 -2.06828 4.73665 0.574768
1 33 0.399506 4.40139 0.588101
1 32 0.401893 4.62639 1.56746
1 21 2.24881 4.11987 0.954731
1 43 -3.17114 5.18405 1.12225
1 28 -0.782176 3.61794 1.09336
1 25 0.526761 2.59095 1.78682
1 23 1.6131 3.37838 2.56481
1 42 -3.08873 4.48872 1.85217
1 29 -1.3394 4.14826 1.74126
1 30 -0.831596 4.49685 2.53875
1 22 2.2312 3.57595 1.78488
1 31 -0.541887 4.92776 1.68995
1 24 0.942951 2.65927 2.69414
ITEM: TIMESTEP
40000
ITEM: NUMBER OF ATOMS
80
ITEM: BOX BOUNDS ff ff ff
-2.0000000000000000e+01 2.0000000000000000e+01
-2.0000000000000000e+01 2.0000000000000000e+01
-4.0000000000000000e+01 4.0000000000000000e+01
ITEM: ATOMS type id x y z
1 61 -3.29621 -1.94078 -1.77105
1 70 -0.923792 -2.65901 -2.06444
1 60 -2.51313 -1.51349 -2.20927
1 59 -1.72601 -0.88631 -2.21804
1 80 0.0062905 -0.96228 -1.88748
1 79 0.991455 -1.12476 -1.85171
1 10 3.84963 2.37621 -1.73066
1 69 -1.186 -3.10096 -1.18756
1 62 -4.18401 -1.97799 -1.33437
1 71 -1.55042 -2.3944 -1.32441
1 58 -1.15209 -0.612405 -1.45656
1 78 1.01357 -1.22044 -0.858083
1 57 -1.61902 -0.689682 -0.568772
1 50 -3.89934 1.50827 -0.732387
1 49 -3.14853 1.62187 -1.37887
1 7 2.31728 1.50082 -0.762317
1 47 -2.72734 2.67261 -0.911019
1 15 0.519679 1.73104 -1.24922
1 14 1.37595 2.0985 -1.60546
1 13 2.07724 2.63114 -1.14497
1 8 2.36229 1.4139 -1.74625
1 9 2.96711 2.09711 -1.37435
1 12 3.05883 2.71418 -1.35487
1 11 3.44781 3.17945 -2.13935
1 65 -2.66699 -2.8315 -0.409192
1 64 -3.47439 -2.55534 0.113771
1 68 -1.50279 -2.91431 -0.265392
1 66 -1.68388 -2.82299 -0.213468
1 67 -1.81107 -3.67371 0.310636
1 63 -4.30606 -2.32275 -0.409042
1 72 -1.08444 -1.6193 -0.899818
1 73 -0.727149 -2.05267 -0.0943405
1 77 0.882399 -0.956108 0.097996
1 1 3.39412 -0.580379 0.602915
1 54 -3.18641 0.812691 0.616898
1 56 -1.92287 -0.322278 0.302213
1 55 -2.22653 0.539408 0.72159
1 4 1.74881 0.282886 0.543364
1 3 2.66059 0.469801 0.164392
1 2 3.55864 0.100761 -0.102634
1 51 -4.37193 1.30834 0.131813
1 6 2.84364 1.43213 0.0687218
1 48 -2.70887 1.76485 -0.477185
1 16 0.601622 1.46526 -0.267196
1 17 0.812724 2.24943 0.327755
1 46 -3.38573 3.35282 -0.606662
1 37 -1.98361 2.97439 0.22755
1 36 -1.20759 3.55622 0.0187338
1 34 -0.043882 2.95348 0.0584118
1 18 1.77769 2.49111 0.2447
1 19 2.66131 2.83368 -0.0923438
1 45 -3.4227 3.64747 0.345118
1 35 -0.47748 3.60976 0.693571
1 33 0.143277 3.67206 0.743296
1 39 -1.18237 4.74242 0.0562518
1 74 -0.545531 -1.62627 0.781759
1 75 0.14771 -1.12268 0.254737
1 76 0.65134 -0.735901 1.03148
1 52 -4.38117 0.349729 0.440161
1 53 -4.05195 1.06613 1.04965
1 5 1.90798 1.24262 0.311322
1 26 0.728824 1.07833 0.806961
1 28 -0.735229 2.06405 1.06132
1 29 -1.35023 2.714 1.52254
1 27 0.223779 1.83978 1.25031
1 20 2.94248 2.91152 0.872729
1 44 -3.56614 3.69979 1.33437
1 41 -1.90093 4.10339 1.78324
1 40 -1.41871 4.32734 0.938232
1 38 -1.71011 3.93469 0.29207
1 32 -0.38896 4.40576 1.14823
1 25 1.21372 1.843 1.23309
1 24 1.23535 2.58354 1.88597
1 23 1.74119 2.6956 2.74459
1 30 -1.25531 3.21785 2.39246
1 21 2.62736 3.1446 1.78253
1 42 -2.85103 4.33513 2.01711
1 31 -0.666892 3.89131 1.95082
1 43 -3.7806 4.0893 2.23657
1 22 2.05222 3.59953 2.45713
ITEM: TIMESTEP
45000
ITEM: NUMBER OF ATOMS
80
ITEM: BOX BOUNDS ff ff ff
-2.0000000000000000e+01 2.0000000000000000e+01
-2.0000000000000000e+01 2.0000000000000000e+01
-4.0000000000000000e+01 4.0000000000000000e+01
ITEM: ATOMS type id x y z
1 60 -2.93949 -1.40727 -2.78932
1 59 -2.43095 -0.592975 -3.05075
1 71 -0.626541 -2.40935 -2.07507
1 61 -3.36713 -1.91989 -2.04412
1 58 -2.2955 -0.120272 -2.18214
1 80 0.0916157 0.215996 -1.98822
1 8 3.20421 1.7506 -2.06024
1 9 3.2901 2.56459 -1.47793
1 65 -2.72851 -3.05154 -1.39041
1 70 -1.10367 -2.14899 -1.23468
1 69 -1.1819 -1.78279 -0.313283
1 72 -0.529069 -2.88548 -1.19866
1 62 -3.88468 -1.51314 -1.27986
1 79 0.256288 -0.606614 -1.45358
1 57 -2.03109 -0.0284141 -1.21824
1 78 1.11234 -0.51325 -0.95519
1 51 -4.13391 0.763261 -1.01592
1 50 -3.17603 0.667001 -1.2767
1 7 3.26273 1.12689 -1.2881
1 49 -2.78452 1.522 -1.6224
1 48 -2.0058 1.95756 -1.16754
1 14 0.637475 1.82407 -1.15501
1 13 1.53933 1.465 -0.932505
1 12 1.65872 2.27552 -1.50107
1 11 2.13987 3.15251 -1.46386
1 10 2.95903 3.32998 -0.923189
1 66 -2.89435 -3.72602 -0.659967
1 67 -1.99678 -3.37108 -0.403734
1 63 -3.73977 -2.10579 -0.477961
1 64 -3.66139 -2.71437 -1.26135
1 68 -1.43069 -2.68689 0.0282455
1 73 -0.308989 -2.6922 -0.236518
1 74 0.334333 -2.12838 0.27446
1 75 0.420997 -1.18616 0.609919
1 52 -3.87456 0.100478 -0.319444
1 56 -2.52931 0.247733 -0.398753
1 77 1.57827 -0.482808 -0.0834899
1 15 -0.222419 1.55246 -0.748138
1 17 1.24792 1.89499 0.106964
1 6 3.27736 0.547762 -0.473495
1 46 -3.59336 2.63672 -0.282471
1 47 -2.69527 2.25718 -0.514722
1 16 0.377944 2.1949 -0.251778
1 18 2.15585 2.27917 -0.0453848
1 19 3.00827 2.77529 0.180861
1 45 -3.44031 3.41584 0.3178
1 35 0.268395 3.38335 0.468322
1 20 2.26829 2.72351 0.856978
1 39 -1.60285 4.10426 0.672393
1 76 1.15894 -0.550903 0.819841
1 54 -3.21545 -0.469427 1.15636
1 55 -3.13921 -0.356879 0.149736
1 3 2.67635 0.298069 1.47918
1 1 4.3652 0.0794415 2.01018
1 53 -3.28244 0.249806 0.487699
1 26 -0.245004 1.03005 1.41199
1 25 0.739319 1.06562 1.53392
1 5 2.79766 1.26157 0.0287524
1 4 2.32089 1.01562 0.869484
1 2 3.55676 0.628646 1.83853
1 36 -0.315692 2.57036 0.508452
1 44 -2.93126 3.32149 1.18066
1 41 -1.95025 4.37759 1.15709
1 37 -1.27893 2.38381 0.715081
1 38 -1.16246 3.28692 0.306
1 40 -1.23655 3.7944 1.55329
1 21 2.7268 2.49731 1.72753
1 42 -2.86336 4.71726 0.980439
1 32 -0.274839 4.24958 1.44862
1 33 0.445662 4.54165 0.840131
1 34 0.437885 4.18165 -0.101504
1 27 -0.841924 1.54964 1.9915
1 28 -1.03061 1.5475 2.98109
1 24 1.4021 1.77047 1.78952
1 23 1.40131 2.18029 2.70703
1 31 -0.207359 3.48723 2.09653
1 22 1.81682 2.76586 2.00186
1 43 -3.4991 4.10946 1.44431
1 29 -1.42106 2.47603 2.96774
1 30 -0.629719 3.06777 2.88856
ITEM: TIMESTEP
50000
ITEM: NUMBER OF ATOMS
80
ITEM: BOX BOUNDS ff ff ff
-2.0000000000000000e+01 2.0000000000000000e+01
-2.0000000000000000e+01 2.0000000000000000e+01
-4.0000000000000000e+01 4.0000000000000000e+01
ITEM: ATOMS type id x y z
1 62 -3.09339 -2.39412 -1.48898
1 61 -2.41329 -2.26436 -2.21943
1 60 -2.27521 -1.63468 -3.00201
1 59 -1.8945 -0.766303 -2.71101
1 58 -2.6792 -0.457995 -2.17602
1 80 0.178098 0.320499 -1.91673
1 49 -2.48455 1.93211 -1.72868
1 10 1.9301 1.55752 -3.0023
1 9 2.88583 1.23295 -3.04309
1 65 -2.72412 -2.97216 -0.857713
1 66 -2.34771 -3.87906 -0.822527
1 63 -2.51039 -1.68064 -1.09934
1 64 -2.88625 -2.14505 -0.303625
1 69 -0.813979 -1.99227 -0.667103
1 71 -0.512795 -1.38654 -0.889029
1 78 1.33989 -0.804014 -0.73849
1 57 -2.70452 0.0749028 -1.32851
1 79 0.727502 -0.271703 -1.31981
1 7 3.14826 0.904618 -1.16311
1 51 -3.80442 1.29534 -0.933734
1 50 -3.13467 1.18506 -1.67844
1 14 -0.118373 0.5158 -0.89645
1 15 0.380243 1.37694 -0.83512
1 13 0.294023 1.32631 -1.34916
1 8 3.30992 1.06348 -2.13881
1 47 -3.13298 2.93367 -0.671891
1 48 -2.2623 2.69771 -1.12511
1 12 1.064 1.95508 -1.27519
1 11 1.42947 1.82658 -2.18165
1 68 -1.44246 -2.76161 -0.564006
1 67 -1.93121 -3.44186 -0.0433465
1 72 0.232125 -1.87841 -0.427246
1 73 0.506338 -2.20357 0.487923
1 70 -1.30834 -1.17644 -0.331344
1 77 1.11886 -0.617625 0.227442
1 56 -2.98691 -0.515096 -0.586552
1 53 -3.11579 -0.352536 -0.439286
1 55 -2.98786 0.348021 -0.0872137
1 54 -2.1458 -0.0985714 -0.376636
1 5 3.87875 0.0712677 0.0805399
1 4 3.06839 -0.341676 0.471269
1 52 -3.59421 0.312864 -0.998542
1 16 0.963094 1.67534 -0.0664232
1 6 3.66947 0.968397 -0.317373
1 40 -1.81809 2.99805 0.460412
1 18 2.29724 2.42734 0.110002
1 17 1.86716 1.56327 0.342546
1 46 -3.4999 2.88181 0.262284
1 39 -2.13831 3.86309 0.828947
1 37 -1.18955 3.52054 0.49403
1 35 0.493869 2.58937 0.39816
1 19 2.845 3.16413 0.506834
1 75 0.328352 -0.718412 1.2364
1 74 0.910136 -1.53032 1.11042
1 76 1.06969 -0.0671969 1.05221
1 3 3.44302 0.154912 1.24337
1 41 -2.61075 2.42704 0.705346
1 20 1.96012 2.83236 0.839763
1 45 -3.97103 3.72034 0.51892
1 44 -3.12988 3.40312 0.932253
1 43 -2.72213 3.56998 1.82826
1 38 -1.64455 3.1087 1.27511
1 36 -0.457602 2.83769 0.551837
1 21 1.31139 3.12303 1.52613
1 34 0.330482 3.5862 0.392458
1 33 -0.0249413 4.12015 1.17408
1 2 2.85425 0.573347 1.95159
1 28 -0.160631 1.44155 2.3896
1 27 -0.0677561 0.97916 1.52317
1 25 0.590584 1.49137 2.124
1 29 -0.501466 2.27955 2.78289
1 26 0.830052 1.26282 1.18083
1 22 2.22799 2.68914 1.55829
1 42 -3.15017 2.73463 1.48529
1 30 -1.11184 3.04582 2.54378
1 31 -1.34911 4.0191 2.40056
1 32 -0.413138 4.06543 2.10313
1 1 2.30653 0.263817 2.72517
1 23 1.72698 2.68513 2.43182