ITEM: TIMESTEP
0
ITEM: NUMBER OF ATOMS
80
ITEM: BOX BOUNDS ff ff ff
-1.0000000000000000e+01 1.0000000000000000e+01
-1.0000000000000000e+01 1.0000000000000000e+01
-5.0000000000000000e+01 5.0000000000000000e+01
ITEM: ATOMS type id x y z
1 69 -3.16955 -3.35875 -0.648425
1 70 -2.92166 -3.48107 -0.317396
1 72 -2.42527 -3.68646 -0.0118263
1 73 -2.1778 -3.77099 -0.568829
1 74 -1.93131 -3.84435 -0.248517
1 76 -1.44201 -3.96031 -0.301562
1 80 -0.47803 -4.085 -0.596936
1 64 -4.37386 -2.52462 -0.393429
1 65 -4.14107 -2.72297 -0.228425
1 67 -3.66117 -3.07138 -0.34613
1 68 -3.41634 -3.2224 -0.611913
1 59 -5.41222 -1.28215 -0.253526
1 60 -5.22624 -1.56406 -0.428295
1 61 -5.02787 -1.82941 -0.957158
1 62 -4.81868 -2.07798 -0.716046
1 56 -5.87977 -0.341901 -0.088372
1 52 -6.23383 1.09976 -0.0922737
1 53 -6.17862 0.722736 -0.111947
1 2 6.10013 0.355282 -0.0717076
1 3 6.17851 0.722143 -0.0629778
1 50 -6.26996 1.87768 -0.395057
1 51 -6.26466 1.48532 -0.359713
1 6 6.26997 1.87705 -0.0348432
1 48 -6.20022 2.6751 -0.353784
1 7 6.24881 2.27431 -0.0153736
1 8 6.20031 2.67447 -0.837081
1 45 -5.88504 3.87129 -0.762589
1 10 6.01891 3.47489 -0.955271
1 12 5.72289 4.26036 -0.100827
1 41 -5.06554 5.36989 -0.0145083
1 42 -5.31235 5.01265 -0.640086
1 13 5.53191 4.64163 -0.0799878
1 14 5.31272 5.01207 -0.589197
1 15 5.06595 5.36933 -0.377146
1 38 -4.16899 6.33952 -0.384462
1 19 3.82291 6.62101 -0.0358324
1 36 -3.45442 6.87935 -0.128019
1 35 -3.06709 7.11145 -0.15525
1 21 3.06772 7.1111 -0.656768
1 20 3.45502 6.87896 -0.453413
1 30 -0.915254 7.83388 -0.0755936
1 26 0.915977 7.83377 -0.881388
1 27 0.459509 7.8834 -0.218347
1 28 0.000365982 7.9 -0.815824
1 71 -2.67337 -3.59006 0.364029
1 75 -1.68601 -3.90724 0.055985
1 77 -1.19933 -4.00414 0.528027
1 78 -0.957883 -4.03925 0.220752
1 79 -0.717522 -4.06609 0.47652
1 63 -4.60019 -2.30969 0.664595
1 66 -3.90311 -2.90508 0.804348
1 57 -5.74059 -0.67042 0.862604
1 58 -5.5842 -0.984083 0.546904
1 54 -6.10028 0.355857 0.65023
1 55 -6.00018 0.000555938 0.19117
1 1 6 0 0.990403
1 4 6.23376 1.09915 0.0307284
1 5 6.26463 1.4847 0.259797
1 47 -6.12369 3.07604 0.272497
1 49 -6.24875 2.27494 0.205573
1 9 6.12383 3.0754 0.494996
1 44 -5.72261 4.26098 0.962331
1 46 -6.01872 3.47553 0.384527
1 11 5.88528 3.87066 0.0514697
1 43 -5.53158 4.64223 0.470128
1 39 -4.49269 6.03555 0.203044
1 40 -4.79196 5.71162 0.482214
1 37 -3.82234 6.62144 0.449381
1 18 4.16953 6.33906 0.945315
1 16 4.79242 5.71109 0.614466
1 17 4.49319 6.03505 0.658247
1 33 -2.24245 7.4918 0.495494
1 34 -2.66237 7.31608 0.0564417
1 31 -1.36641 7.75164 0.673984
1 32 -1.80965 7.63734 0.832931
1 24 1.81035 7.63713 0.494368
1 25 1.36713 7.75148 0.4468
1 22 2.66302 7.31578 0.609796
1 23 2.24313 7.49155 0.978883
1 29 -0.458779 7.88345 0.217407
ITEM: TIMESTEP
5000
ITEM: NUMBER OF ATOMS
80
ITEM: BOX BOUNDS ff ff ff
-1.0000000000000000e+01 1.0000000000000000e+01
-1.0000000000000000e+01 1.0000000000000000e+01
-5.0000000000000000e+01 5.0000000000000000e+01
ITEM: ATOMS type id x y z
1 64 0.439159 -0.4233 -5.58491
1 63 -0.0422474 0.289098 -5.08882
1 69 0.122518 -0.37824 -4.06406
1 66 0.172863 -0.493311 -4.22244
1 62 -0.615946 0.239844 -4.25593
1 65 0.245288 0.258118 -4.88254
1 68 0.183267 0.515457 -3.62499
1 60 -0.846626 -0.580991 -2.47391
1 67 0.24839 -0.387683 -3.22535
1 70 0.195802 -0.30369 -3.08028
1 80 0.921941 -0.617876 -2.3996
1 61 -0.809969 -0.128936 -3.368
1 43 -0.530516 0.478954 -2.3292
1 14 0.513366 0.485255 -2.37358
1 59 -0.819986 -0.943848 -1.55172
1 73 0.0335479 -0.322771 -2.09082
1 71 0.0267118 -0.446062 -2.10934
1 79 0.670931 -1.07073 -1.54735
1 13 0.789259 -0.0119156 -1.54659
1 44 -0.545147 0.356967 -1.33243
1 42 -0.563796 0.406175 -1.32809
1 15 0.475623 0.280448 -1.39802
1 26 0.0661984 1.08997 -1.7214
1 58 -0.763174 -1.18304 -0.592477
1 45 -1.16454 -0.280965 -0.880424
1 72 -0.0307606 -0.493139 -1.11165
1 74 -0.149549 -0.465851 -1.11861
1 75 0.0252812 -0.701655 -0.182258
1 78 0.563012 -0.915902 -0.576371
1 12 1.2431 -0.1516 -0.669718
1 41 -0.691696 0.35939 -0.338934
1 16 0.333561 0.205992 -0.414869
1 18 0.253136 0.177556 -0.525495
1 27 -0.169381 1.14795 -0.750829
1 25 -0.114761 1.08109 -0.72999
1 17 0.854694 0.825323 -0.991022
1 57 -0.618672 -1.30858 0.402631
1 46 -1.19071 -0.368417 0.116402
1 77 -0.243435 -0.569133 -0.104059
1 47 -0.840604 -0.453783 1.04485
1 76 0.0817086 -0.772071 0.814577
1 11 0.897454 -0.321862 0.265575
1 37 -0.887938 0.470555 1.33324
1 40 -0.844035 0.406458 0.6587
1 22 0.459306 1.02346 0.107464
1 24 0.414378 0.978459 0.102888
1 19 0.106733 0.145879 0.484152
1 21 0.0731976 0.182856 0.505841
1 9 1.00714 -0.274159 0.282515
1 28 -0.522395 1.2128 0.193722
1 56 -0.489725 -1.31308 1.40833
1 48 -0.870781 -0.375958 2.04753
1 50 -0.89166 -0.394901 2.04173
1 51 -0.960776 0.135311 2.87032
1 8 0.981688 -0.264577 1.29379
1 1 0.0746076 -0.597854 1.81728
1 4 0.747305 -0.0337797 2.35925
1 10 0.821824 -0.422201 1.26253
1 38 -0.587779 0.8186 2.23814
1 36 -0.186254 0.278144 2.02499
1 39 -0.306524 0.243472 1.47445
1 23 0.875127 0.619835 0.92017
1 20 0.794655 0.66549 0.994857
1 31 -0.080169 1.05685 1.10779
1 29 -0.0731059 1.17055 1.093
1 55 -0.419367 -1.22074 2.41435
1 49 -0.938334 0.112847 2.92738
1 2 -0.0970187 -0.355315 2.77577
1 5 -0.10433 -0.34942 2.78193
1 7 0.760437 -0.0452542 2.25342
1 3 0.715907 -0.223374 3.331
1 6 0.757956 -0.161272 3.24708
1 52 -0.428913 0.11696 3.73986
1 35 -0.0298087 0.593376 2.94807
1 33 0.275415 0.654844 2.84885
1 30 0.41802 1.17268 1.9682
1 32 0.519278 0.894697 1.89617
1 54 -0.170677 -1.04872 3.36897
1 53 0.00892634 -0.622255 4.26615
1 34 0.472391 0.646497 3.82248
ITEM: TIMESTEP
10000
ITEM: NUMBER OF ATOMS
80
ITEM: BOX BOUNDS ff ff ff
-1.0000000000000000e+01 1.0000000000000000e+01
-1.0000000000000000e+01 1.0000000000000000e+01
-5.0000000000000000e+01 5.0000000000000000e+01
ITEM: ATOMS type id x y z
1 64 -0.428742 -0.0315803 -6.80752
1 63 -0.35021 -0.449403 -5.89522
1 68 0.0689276 0.599824 -5.67862
1 65 0.246446 0.224645 -6.12075
1 62 -0.382404 -0.578945 -4.90447
1 66 0.564964 0.0747399 -5.195
1 67 -0.278666 0.403491 -4.75997
1 69 0.367001 0.12477 -4.85485
1 61 -0.661964 -0.654166 -3.93612
1 80 0.420953 -0.511324 -4.06236
1 70 -0.184354 0.330327 -4.05628
1 73 -0.2338 0.215089 -3.63952
1 79 0.862663 0.226439 -3.54654
1 60 -0.739865 -0.725575 -2.95224
1 74 -0.0628534 0.0498888 -2.66941
1 72 0.191164 -0.416416 -3.00115
1 71 -0.402456 0.391075 -3.076
1 78 0.990837 0.186515 -2.55615
1 43 -0.978644 -0.223398 -1.17833
1 59 -0.605157 -0.688076 -1.95813
1 58 -0.386732 -0.901359 -1.00259
1 77 0.422791 -0.341883 -1.90037
1 75 0.345854 -0.535606 -1.98211
1 17 -0.125751 0.555464 -1.69784
1 15 -0.351819 0.240291 -1.6928
1 26 -0.887564 0.789439 -0.973173
1 14 0.509811 0.692083 -1.86082
1 13 0.876008 0.145621 -1.11564
1 57 -0.428459 -0.912544 0.00894339
1 16 0.274954 0.0158338 -0.93491
1 18 -0.0733012 0.0318039 -0.837841
1 12 0.861409 -0.452317 -0.326498
1 76 0.507817 -0.93142 -1.09453
1 44 -0.842117 0.0884595 -0.230882
1 42 -0.961627 0.107993 -0.235571
1 27 -0.295366 1.00024 -0.187937
1 25 -0.101188 0.865734 -0.357886
1 22 0.603957 0.587374 -0.13113
1 24 0.84171 0.774252 -0.0744958
1 45 -1.08938 -0.462785 0.555727
1 21 -0.0519389 -0.00967779 0.316491
1 56 -0.260387 -0.822719 0.976272
1 11 0.723497 -0.747294 0.615333
1 9 0.633858 -0.677543 0.58883
1 41 -0.80699 0.422208 0.71585
1 28 0.0474013 0.982026 0.750899
1 19 0.049914 0.0616657 0.142087
1 23 0.854623 0.190353 0.733898
1 20 0.751557 0.245057 0.838012
1 46 -1.11044 -0.351846 1.5446
1 55 -0.313629 -0.838047 1.97329
1 8 0.49861 -0.414693 1.54853
1 10 0.562635 -0.520715 1.5771
1 40 -0.285253 0.206047 1.53461
1 37 -0.455878 0.40021 1.82462
1 31 0.569597 0.581314 1.82904
1 29 0.355378 0.899012 1.69943
1 47 -1.07841 -0.190523 2.53086
1 54 -0.416815 -0.875099 2.97184
1 7 1.00384 -0.12608 2.3436
1 1 0.515231 -0.823308 2.73698
1 39 -0.102228 0.0644473 2.50123
1 36 -0.127012 0.138891 2.74131
1 38 -0.83528 0.743245 2.67718
1 30 0.3202 1.0385 2.67521
1 32 0.713692 0.831574 2.79585
1 51 -0.297604 -0.300738 3.91849
1 53 -0.511979 -0.744012 3.9573
1 2 0.498245 -0.890376 3.7328
1 4 0.536459 -0.320349 3.35337
1 5 0.588588 -0.0134418 4.28896
1 3 0.588587 -0.0847232 4.32714
1 6 0.850383 0.0126962 3.32339
1 48 -0.806811 0.0102741 3.45015
1 50 -0.947539 0.351065 3.53894
1 35 0.0630743 0.572906 3.62677
1 33 0.162906 0.622066 3.61284
1 52 -0.191754 -0.512716 4.88671
1 49 -0.53689 0.113709 4.41275
1 34 0.143725 0.872045 4.57873
ITEM: TIMESTEP
15000
ITEM: NUMBER OF ATOMS
80
ITEM: BOX BOUNDS ff ff ff
-1.0000000000000000e+01 1.0000000000000000e+01
-1.0000000000000000e+01 1.0000000000000000e+01
-5.0000000000000000e+01 5.0000000000000000e+01
ITEM: ATOMS type id x y z
1 64 -0.519174 -0.177747 -6.60847
1 65 -0.0746027 0.0101704 -7.48711
1 68 0.245659 0.100655 -7.16473
1 63 -0.355424 -0.424903 -5.66775
1 66 0.37427 -0.199082 -6.60881
1 67 -0.334247 0.498493 -6.44459
1 69 0.330043 0.215032 -6.15501
1 62 -0.566644 -0.711145 -4.7304
1 80 0.6223 -0.397306 -5.49468
1 70 -0.0377875 0.468754 -5.2575
1 73 -0.149773 0.146191 -4.97361
1 71 -0.413927 0.3017 -4.34192
1 79 0.794255 0.279585 -4.77731
1 61 -0.436679 -0.796965 -3.75162
1 72 0.266092 -0.39859 -4.26736
1 74 -0.568811 0.283762 -4.07783
1 75 -0.107 0.289905 -3.19429
1 78 0.441181 0.49688 -3.84742
1 77 -0.206814 0.0891155 -3.24072
1 60 -0.276008 -0.726679 -2.77125
1 76 0.608438 -0.282902 -2.81901
1 14 -0.233389 0.068669 -2.18559
1 17 -0.284946 0.198512 -2.11973
1 59 -0.26415 -0.797704 -1.7685
1 15 -0.288227 0.0817234 -1.19339
1 18 -0.415085 0.0745987 -1.13546
1 25 -0.00320326 1.03492 -1.58593
1 16 0.601049 0.135217 -1.68033
1 13 0.572803 -0.123853 -1.60318
1 58 -0.0755879 -0.808276 -0.799858
1 19 -0.19006 -0.0928786 -0.167315
1 22 -0.126415 0.0322038 -0.118066
1 12 0.822025 -0.169802 -0.638117
1 43 -1.05977 0.0589047 0.200704
1 26 -0.157763 0.977541 -0.60099
1 24 0.426437 0.838067 -0.731945
1 44 -0.837331 -0.711732 0.786027
1 57 -0.0334317 -0.954271 0.186029
1 21 -0.0532853 -0.0828129 0.884615
1 11 0.904532 -0.299105 0.361427
1 9 0.759141 -0.621769 0.632542
1 42 -0.942808 0.522845 1.07661
1 27 -0.454445 0.922709 0.346655
1 23 0.483436 0.743026 0.261711
1 20 0.451254 0.533174 0.275972
1 45 -0.969502 -0.516948 1.74647
1 40 -0.00787808 -0.223753 1.84151
1 37 -0.0518079 -0.261715 1.9596
1 56 0.0269322 -1.09094 1.18867
1 8 0.941195 -0.320924 1.5537
1 41 -0.596302 0.547569 2.0186
1 28 0.0406814 0.880177 1.19802
1 10 0.80694 0.143654 1.25115
1 29 0.438496 0.627476 2.09887
1 46 -0.863444 -0.564044 2.72865
1 54 0.00529633 -0.940221 3.13614
1 55 0.0214036 -1.2265 2.18213
1 7 0.82505 -0.326554 2.56806
1 39 -0.13074 0.116367 2.77563
1 36 -0.0321023 0.0090024 2.92576
1 38 -0.613834 0.566997 2.02474
1 31 0.416809 0.653462 2.0763
1 30 0.642055 0.830508 3.03764
1 32 0.232867 1.00957 2.97561
1 47 -0.857097 -0.0452348 3.58235
1 53 -0.016213 -0.539878 4.04066
1 6 0.754429 -0.202447 3.55656
1 51 -0.148645 -0.823562 4.07071
1 35 -0.0126372 0.476812 3.79906
1 33 0.0258638 0.488052 3.78787
1 52 -0.243825 -0.538991 5.0141
1 50 -0.448957 -0.0646089 4.62396
1 49 -0.664276 0.29966 5.53882
1 1 0.772646 -0.493625 5.48062
1 48 -0.840956 0.149957 4.56755
1 34 0.0156558 0.758243 4.74319
1 5 0.663504 -0.0582329 4.53996
1 2 0.363977 0.372155 5.76394
1 4 0.349599 -0.0161077 5.50366
1 3 -0.0813021 -0.300205 6.36755
ITEM: TIMESTEP
20000
ITEM: NUMBER OF ATOMS
80
ITEM: BOX BOUNDS ff ff ff
-1.0000000000000000e+01 1.0000000000000000e+01
-1.0000000000000000e+01 1.0000000000000000e+01
-5.0000000000000000e+01 5.0000000000000000e+01
ITEM: ATOMS type id x y z
1 65 -0.288066 -0.539588 -7.57234
1 68 -0.39154 -0.202484 -7.94575
1 66 -0.061319 -0.207753 -8.48535
1 64 -0.126617 -0.450499 -6.60585
1 67 0.56068 -0.136412 -7.69793
1 80 0.578535 0.229984 -6.69529
1 69 -0.353926 0.352258 -7.12952
1 63 -0.649014 -0.328146 -5.76892
1 72 0.289913 -0.435074 -5.44422
1 70 -0.297603 0.499804 -6.13378
1 73 -0.0380549 0.480174 -5.26912
1 79 0.882357 0.273031 -5.74339
1 62 -0.507841 -0.516803 -4.78498
1 71 -0.179689 0.392724 -5.15761
1 74 -0.107817 0.35887 -4.28802
1 78 0.749573 0.195173 -4.74011
1 61 -0.0448758 -0.568907 -3.89294
1 75 -0.234391 0.393476 -3.29486
1 77 0.312256 0.483818 -3.88831
1 60 -0.0572096 -0.678246 -2.89026
1 76 0.699064 0.120642 -3.03299
1 17 -0.154453 0.134664 -2.28756
1 14 0.0275382 0.080112 -2.27745
1 59 0.141018 -0.83051 -1.9152
1 18 -0.610128 -0.26068 -1.4781
1 13 0.486429 -0.0720804 -1.39508
1 16 0.433245 0.00601057 -1.48901
1 15 -0.537539 -0.207326 -1.51911
1 25 -0.170815 0.75358 -1.38106
1 58 0.169562 -0.8911 -0.8967
1 22 -0.413408 -0.16968 -0.410202
1 12 0.774706 -0.246056 -0.447618
1 19 -0.176578 -0.0687038 -0.585292
1 26 -0.911295 0.772052 -0.707227
1 24 0.691106 0.768962 -0.84614
1 20 0.131067 0.708717 -0.045272
1 23 0.108459 0.611343 -0.0518667
1 57 0.172123 -0.854114 0.107339
1 43 -0.931764 -0.5401 0.584254
1 56 0.0425426 -0.817332 1.11171
1 9 0.958303 -0.526252 0.876799
1 21 -0.133133 -0.0633472 0.539972
1 27 -0.847312 0.5219 0.256321
1 28 -0.220979 0.828603 0.966726
1 11 0.803367 0.149059 0.471716
1 44 -0.669181 -0.189865 1.49421
1 42 -0.621307 -0.133755 1.44469
1 55 -0.0140393 -0.962774 2.10268
1 8 0.831247 -0.376511 1.87052
1 29 0.239436 1.00205 1.82578
1 10 0.376428 0.115945 1.38299
1 45 -0.801333 -0.455427 2.4531
1 54 -0.12106 -0.841652 3.08843
1 7 0.901791 -0.298916 2.86979
1 41 -0.633272 0.693328 2.0018
1 38 -0.405216 0.81779 2.70076
1 37 0.113074 0.0363839 2.35256
1 40 0.0654541 0.0374264 2.27175
1 30 0.758153 0.69052 2.61975
1 46 -0.930283 -0.0331429 3.35116
1 53 -0.0998292 -0.632835 4.06214
1 51 -0.215012 -0.704373 4.05924
1 6 0.915252 -0.177402 3.84259
1 32 -0.512808 0.796252 3.81833
1 31 0.371665 1.10386 3.44585
1 39 0.0420023 0.133136 3.27817
1 36 0.107836 0.162176 3.34255
1 52 -0.187325 -0.540682 5.04985
1 50 -0.290962 -0.326229 4.98761
1 5 0.850848 -0.295525 4.84034
1 47 -0.892149 -0.0959228 4.34899
1 35 0.182054 0.509152 4.26707
1 33 0.157803 0.284116 4.34477
1 49 -0.517994 -0.131986 5.95739
1 4 0.514195 -0.355026 5.76729
1 48 -0.56545 0.430788 5.12929
1 34 0.424518 0.663022 5.22808
1 3 0.13888 -0.49796 6.69555
1 1 0.0697308 0.214919 6.67502
1 2 -0.149624 -0.144637 7.57981
ITEM: TIMESTEP
25000
ITEM: NUMBER OF ATOMS
80
ITEM: BOX BOUNDS ff ff ff
-1.0000000000000000e+01 1.0000000000000000e+01
-1.0000000000000000e+01 1.0000000000000000e+01
-5.0000000000000000e+01 5.0000000000000000e+01
ITEM: ATOMS type id x y z
1 67 -0.24439 -0.0702301 -9.64639
1 66 0.071725 -0.404216 -8.75623
1 68 -0.0729608 0.148487 -8.68344
1 65 0.28949 -0.533598 -7.79047
1 69 -0.342499 0.279706 -7.7301
1 64 0.246167 -0.540511 -6.78399
1 70 -0.601112 -0.042109 -6.82351
1 80 0.27647 0.483052 -6.89816
1 63 0.112355 -0.782879 -5.82538
1 72 0.633832 -0.00361957 -5.79438
1 71 -0.362063 0.0390329 -5.85884
1 73 -0.350514 0.0262901 -5.69151
1 79 0.0392101 0.982021 -6.06431
1 62 0.0299751 -0.574112 -4.8507
1 74 -0.601762 0.106234 -4.71669
1 78 0.276234 0.658001 -5.16558
1 77 0.333625 0.274296 -4.25392
1 61 0.0330331 -0.539777 -3.85507
1 75 -0.396987 0.372393 -3.78229
1 76 0.468926 0.263269 -3.26813
1 60 0.270779 -0.755578 -2.90862
1 17 -0.368067 -0.00504255 -2.41093
1 14 -0.22295 0.00799327 -2.5282
1 16 0.545273 0.0620853 -2.00672
1 18 -0.629586 -0.256884 -1.49011
1 15 -0.311192 -0.109664 -1.53666
1 59 0.0301349 -0.941301 -1.95537
1 13 0.353699 -0.109185 -1.70448
1 25 -0.34582 0.868852 -2.04179
1 24 0.131926 0.774784 -1.17269
1 22 -0.175431 -0.0287774 -0.467124
1 19 -0.309735 -0.0424179 -0.567319
1 12 0.766246 -0.160656 -0.794895
1 58 0.0789728 -0.899659 -0.956917
1 26 -0.427721 0.812133 -1.05895
1 20 0.406529 0.560529 -0.217856
1 23 0.369382 0.764249 -0.1918
1 57 -0.123824 -0.920997 0.0359754
1 43 -0.802474 -0.425974 0.950025
1 11 0.937889 -0.316211 0.191617
1 56 0.0980608 -0.871813 0.99918
1 27 -0.713477 0.692055 -0.0916405
1 21 0.00975036 -0.00377941 0.504692
1 42 -0.172643 0.00363977 1.58777
1 44 -0.442797 0.164398 1.69258
1 10 0.871468 -0.317139 1.18682
1 9 1.03044 -0.238356 2.18821
1 55 0.140268 -0.756536 1.98848
1 28 -0.456429 0.862878 0.870168
1 41 -0.550733 0.735799 2.13596
1 29 0.486652 0.630741 1.08704
1 45 -0.775814 -0.386172 2.45409
1 37 0.133584 0.0950853 2.63897
1 54 0.00490014 -0.802165 2.98566
1 8 0.970383 -0.165139 3.18461
1 40 0.110103 0.0941294 2.52443
1 38 -0.729997 0.484269 2.96124
1 30 0.684306 0.869384 2.04032
1 31 0.245316 1.0689 2.91058
1 46 -0.939114 -0.379082 3.43474
1 53 0.116569 -0.894736 3.97689
1 7 0.739186 -0.158417 4.15522
1 36 -0.0248431 -0.00913492 3.61143
1 32 -0.320751 0.916202 3.71637
1 47 -0.950223 0.0561212 4.33125
1 39 -0.019633 0.0501901 3.51538
1 51 -0.457187 -0.727889 4.41688
1 50 -0.181306 -0.27847 5.26871
1 48 -0.594307 -0.115764 5.23373
1 52 0.381959 -0.807572 4.93734
1 35 -0.0212233 0.385512 4.51228
1 33 -0.0387273 0.370453 4.50529
1 6 0.865355 0.0393159 5.1148
1 49 -0.463804 -0.140844 6.22415
1 5 0.591726 -0.0215823 6.0831
1 34 0.0379303 0.706171 5.45541
1 4 0.23225 0.0441102 7.00647
1 1 -0.233133 -0.154959 8.05265
1 3 0.142636 -0.102967 7.98567
1 2 0.180509 0.0431539 8.95529
ITEM: TIMESTEP
30000
ITEM: NUMBER OF ATOMS
80
ITEM: BOX BOUNDS ff ff ff
-1.0000000000000000e+01 1.0000000000000000e+01
-1.0000000000000000e+01 1.0000000000000000e+01
-5.0000000000000000e+01 5.0000000000000000e+01
ITEM: ATOMS type id x y z
1 68 -0.0420941 -0.479658 -10.0812
1 67 -0.0586364 0.518667 -10.0151
1 69 -0.134737 -0.308855 -9.12698
1 66 0.0905136 0.202823 -9.07411
1 70 -0.408532 -0.203734 -8.15909
1 65 0.56352 -0.279474 -8.31849
1 80 0.154908 0.609494 -7.76205
1 71 -0.497509 0.105164 -7.21617
1 64 0.238002 -0.593679 -7.42782
1 79 -0.0582009 0.899654 -6.83846
1 72 0.373567 0.0437438 -6.74415
1 73 -0.442068 0.0635857 -6.18741
1 63 -0.0769124 -0.794986 -6.49968
1 62 -0.089784 -0.666837 -5.50037
1 78 0.259241 0.604597 -5.93821
1 61 -0.000250487 -0.622003 -4.49768
1 74 -0.397253 0.284073 -5.21157
1 77 0.418416 0.154451 -5.04127
1 60 0.153661 -0.548024 -3.50455
1 75 -0.413247 0.317282 -4.21652
1 76 0.553283 0.15332 -4.05275
1 59 0.188109 -0.636183 -2.50852
1 15 0.191328 0.272108 -2.97098
1 17 -0.278394 0.310532 -2.59936
1 18 -0.695333 -0.274563 -1.91069
1 19 -0.405477 -0.358487 -0.969852
1 58 0.312535 -0.83942 -1.53062
1 25 -0.539805 0.648824 -1.55627
1 14 0.327525 0.189242 -1.97189
1 16 0.548124 0.454773 -2.04482
1 20 -0.258588 -0.290551 0.026742
1 21 -0.993245 0.118395 -0.530204
1 22 -0.20028 -0.278988 -0.998032
1 23 -0.261189 -0.205184 0.00525699
1 13 0.735661 0.026878 -1.08467
1 57 0.480778 -0.847684 -0.550042
1 27 -0.28972 0.767945 -0.239306
1 24 -0.174448 0.544605 -0.633536
1 12 0.646346 0.243967 -0.100432
1 26 0.292486 0.844308 -1.04182
1 43 -0.514413 -0.0403886 1.02845
1 56 0.444324 -0.696286 0.439637
1 28 -0.183145 0.877115 0.74689
1 11 0.574561 0.236847 0.897345
1 42 -0.675377 -0.450902 1.92996
1 44 -0.538195 -0.164372 2.02537
1 55 0.168051 -0.638901 1.39817
1 29 -0.178097 0.648467 1.7213
1 10 0.649471 0.0934854 1.89757
1 45 -0.751894 -0.601745 2.91945
1 54 0.260222 -0.719503 2.3897
1 41 -0.713061 0.349397 2.54264
1 40 -0.0455778 0.00313087 3.20953
1 9 0.862383 -0.0673652 2.86428
1 30 0.0827517 0.880986 2.66579
1 37 -0.0187702 -0.00205757 3.32846
1 46 -0.585906 -0.685272 3.90777
1 53 0.452014 -0.923954 3.34317
1 36 -0.195696 0.198579 4.27381
1 39 -0.0296229 0.118743 4.21821
1 38 -0.686885 0.642946 3.71131
1 31 0.380078 0.937048 3.61434
1 8 0.883627 -0.0772816 3.85246
1 47 -0.673899 -0.381435 4.86909
1 52 0.295158 -0.790915 4.32688
1 35 -0.103794 0.55122 5.20188
1 33 -0.139648 0.398981 5.24074
1 7 0.710766 -0.00940509 4.83871
1 32 0.377563 0.978012 4.61109
1 50 0.0519297 -0.611305 6.25701
1 48 -0.67045 -0.324093 5.87382
1 51 0.314905 -0.828578 5.3201
1 6 0.635835 0.0522841 5.83289
1 34 -0.282665 0.741053 6.18066
1 5 0.464669 0.111592 6.80851
1 49 -0.500367 0.0313326 6.80326
1 4 0.120411 0.0971579 7.76323
1 3 -0.0428688 -0.252705 8.68517
1 2 -0.000956609 -0.0411946 9.65865
1 1 -0.0097289 0.209158 8.6957
ITEM: TIMESTEP
35000
ITEM: NUMBER OF ATOMS
80
ITEM: BOX BOUNDS ff ff ff
-1.0000000000000000e+01 1.0000000000000000e+01
-1.0000000000000000e+01 1.0000000000000000e+01
-5.0000000000000000e+01 5.0000000000000000e+01
ITEM: ATOMS type id x y z
1 67 0.115292 -0.41184 -10.144
1 68 -0.0428936 0.493804 -10.5483
1 69 -0.10229 0.34499 -9.55826
1 66 -0.125642 -0.229502 -9.20444
1 70 0.0949424 0.586011 -8.61046
1 65 -0.334879 -0.331594 -8.23241
1 71 0.0476251 0.536696 -7.61212
1 80 0.630235 -0.223086 -7.73317
1 64 -0.347808 -0.298185 -7.24451
1 72 -0.0326253 0.427562 -6.62498
1 79 0.576926 -0.296355 -6.73943
1 63 -0.276397 -0.465335 -6.24485
1 73 -0.309023 0.291519 -5.66712
1 78 0.632111 0.147022 -5.83664
1 62 -0.105745 -0.569876 -5.27063
1 61 0.243882 -0.530599 -4.32819
1 74 -0.366398 0.206312 -4.67875
1 77 0.394207 0.332965 -4.88697
1 75 -0.619927 -0.195086 -3.79032
1 60 0.243957 -0.388013 -3.338
1 76 -0.000324746 0.556358 -3.99989
1 15 -0.263084 -0.220365 -2.41068
1 18 -0.405055 -0.240426 -2.17532
1 59 0.616173 -0.630058 -2.46155
1 17 -0.420387 0.324678 -3.00948
1 16 0.506411 0.380611 -2.64126
1 19 -0.340765 -0.435933 -1.19436
1 22 -0.259691 -0.33065 -1.13552
1 58 0.704244 -0.628345 -1.46431
1 25 -0.543533 0.759585 -1.92934
1 26 0.0268569 1.02828 -1.17358
1 14 0.448839 0.283665 -1.87577
1 20 -0.352436 -0.249787 -0.204338
1 23 -0.227615 -0.0636022 -0.17017
1 57 0.534225 -0.694347 -0.488975
1 21 -0.911855 0.33469 -0.77149
1 24 -0.427717 0.505413 -0.972321
1 27 0.0280892 0.864727 -0.194287
1 13 0.653967 0.254347 -0.890949
1 56 0.328119 -0.727393 0.494465
1 11 0.688745 -0.0511455 1.08745
1 43 -0.580218 -0.09928 0.981336
1 28 0.0131599 0.509372 0.731577
1 12 0.752316 0.125372 0.10515
1 42 -0.842841 -0.421651 1.88198
1 55 0.0521404 -0.726154 1.4785
1 10 0.727058 -0.282041 2.07969
1 44 -0.486556 0.0942675 1.95661
1 29 0.358972 0.609867 1.67055
1 45 -0.942138 -0.248785 2.76861
1 54 -0.0610641 -0.686499 2.46548
1 9 0.762896 -0.495187 3.07335
1 41 -0.392663 0.353244 2.29997
1 30 0.520567 0.55433 2.66039
1 46 -0.934911 -0.134934 3.74394
1 53 -0.143992 -0.82192 3.45803
1 8 0.783463 -0.442643 4.07445
1 40 -0.141781 0.133473 3.24315
1 38 -0.464232 0.893957 3.79736
1 36 -0.127852 0.18053 4.29324
1 37 -0.0675862 0.142465 3.29323
1 39 -0.0928388 0.0832245 4.22914
1 31 0.782769 0.463326 3.62623
1 47 -0.920195 -0.0314921 4.72344
1 52 -0.190758 -0.825349 4.45886
1 7 0.660975 -0.126467 5.01048
1 35 -0.0506004 0.507273 5.23521
1 33 -0.126989 0.459001 5.23853
1 32 0.552164 0.722394 4.55928
1 48 -0.45802 -0.352424 5.56342
1 51 -0.188732 -0.535949 5.41951
1 6 0.709203 0.139485 5.98552
1 34 -0.0631766 0.79794 6.18536
1 50 -0.0119694 -0.724434 6.38126
1 5 0.347624 0.0410357 6.92049
1 49 -0.602668 0.0790888 6.45809
1 4 0.168412 -0.0193782 7.90487
1 1 0.313932 -0.261693 8.75138
1 3 -0.350624 -0.0897468 8.75204
1 2 0.0379958 -0.0113271 9.68586
ITEM: TIMESTEP
40000
ITEM: NUMBER OF ATOMS
80
ITEM: BOX BOUNDS ff ff ff
-1.0000000000000000e+01 1.0000000000000000e+01
-1.0000000000000000e+01 1.0000000000000000e+01
-5.0000000000000000e+01 5.0000000000000000e+01
ITEM: ATOMS type id x y z
1 68 -0.308869 -0.156151 -11.0134
1 67 -0.223053 -0.0222431 -10.0305
1 69 0.343547 -0.29528 -10.2771
1 66 -0.148503 -0.484113 -9.14792
1 71 -0.189241 0.372101 -8.63058
1 70 0.0797593 0.382124 -9.59165
1 65 0.0817347 -0.612985 -8.19404
1 72 -0.501182 0.145554 -7.71318
1 80 0.419886 0.346528 -7.73833
1 64 -0.0683737 -0.629556 -7.21068
1 73 -0.297489 0.462747 -6.80388
1 79 0.627916 0.0341686 -6.82093
1 63 -0.116618 -0.513917 -6.21127
1 74 -0.399684 0.448743 -5.79966
1 78 0.528217 0.201298 -5.84169
1 62 -0.0511004 -0.525978 -5.21846
1 75 -0.522923 0.384804 -4.81208
1 77 0.722352 0.159858 -4.87185
1 61 0.182087 -0.5257 -4.25831
1 60 -0.160851 -0.582206 -3.3272
1 76 0.166667 0.478759 -4.10729
1 59 -0.230224 -0.78547 -2.34662
1 17 -0.209712 0.456197 -3.14997
1 18 -0.421601 0.1156 -2.22894
1 15 0.123251 0.187898 -2.50954
1 16 0.713157 0.123856 -3.30597
1 19 -0.414288 0.032701 -1.23483
1 58 -0.219339 -0.964161 -1.35186
1 14 0.504291 -0.343023 -1.74779
1 22 -0.433305 0.0937838 -1.00133
1 25 0.0171225 0.855546 -1.76482
1 26 0.683396 0.41194 -1.16092
1 57 -0.381913 -0.753317 -0.376481
1 13 0.444008 -0.380095 -0.760426
1 20 -0.65145 0.227507 -0.287743
1 23 -0.308477 0.271464 -0.0359082
1 21 -0.103357 0.968994 -0.647392
1 24 0.0834253 0.836985 -0.757497
1 27 0.726502 0.495107 -0.185082
1 56 -0.450395 -0.52764 0.601962
1 12 0.495151 -0.459335 0.230286
1 28 0.408314 0.581026 0.768293
1 55 -0.156904 -0.709695 1.54173
1 42 -0.967556 -0.31693 1.92973
1 11 0.607504 -0.265107 1.19597
1 43 -0.506632 0.345435 1.34918
1 29 0.383796 0.705772 1.76922
1 54 -0.16588 -0.818389 2.53627
1 45 -0.948048 -0.231125 3.08584
1 10 0.553395 -0.161746 2.18205
1 44 -0.407182 0.1231 2.31757
1 41 -0.386591 0.280734 2.47591
1 30 0.557892 0.641989 2.74185
1 53 -0.256835 -0.727725 3.53113
1 46 -0.865418 -0.147452 4.08436
1 9 0.595174 -0.40285 3.1328
1 8 0.664759 -0.54989 4.14603
1 40 -0.226186 0.421594 3.45284
1 38 -0.604794 0.958614 4.06815
1 37 -0.202743 0.248682 3.48105
1 31 0.81644 0.399353 3.68392
1 52 -0.19807 -0.67419 4.52632
1 7 0.735551 -0.522341 5.14983
1 47 -0.70087 0.0512223 5.02706
1 36 0.0251051 0.374684 4.44683
1 39 0.0241315 0.246274 4.41556
1 32 1.01176 0.447787 4.64899
1 33 0.368129 0.539603 5.40161
1 35 0.254834 0.420284 5.41801
1 51 -0.255282 -0.744153 5.51055
1 6 0.586844 -0.338982 6.12991
1 48 -0.549773 -0.0265469 6.00582
1 34 0.143684 0.729351 6.36122
1 50 -0.238139 -0.752292 6.51448
1 5 0.43071 -0.174586 7.11403
1 49 -0.513243 0.0693842 7.00564
1 4 -0.0553324 -0.0766568 7.97766
1 1 0.0755234 -0.0301503 8.92334
1 3 -0.222752 -0.0631907 8.96794
1 2 0.0541643 0.216014 9.89252
ITEM: TIMESTEP
45000
ITEM: NUMBER OF ATOMS
80
ITEM: BOX BOUNDS ff ff ff
-1.0000000000000000e+01 1.0000000000000000e+01
-1.0000000000000000e+01 1.0000000000000000e+01
-5.0000000000000000e+01 5.0000000000000000e+01
ITEM: ATOMS type id x y z
1 68 0.0324284 -0.404388 -10.9162
1 69 -0.115379 0.267375 -11.639
1 67 0.535628 -0.151613 -10.0789
1 70 -0.176961 0.031804 -10.6688
1 71 -0.423272 0.297317 -9.74019
1 66 0.229544 -0.24117 -9.12957
1 72 -0.368529 0.39983 -8.74878
1 65 -0.0132291 -0.49443 -8.19554
1 73 -0.485509 0.273335 -7.77475
1 64 0.0824317 -0.488973 -7.20462
1 74 -0.457204 0.286466 -6.78049
1 80 0.599266 0.352653 -7.52929
1 63 0.0615557 -0.570515 -6.18294
1 75 -0.545429 0.273268 -5.7934
1 79 0.576922 0.319068 -6.52573
1 78 0.154966 0.420898 -5.61858
1 62 -0.00892139 -0.602254 -5.17763
1 76 -0.547589 0.185734 -4.80049
1 77 0.452329 0.328185 -4.67753
1 60 0.315139 -0.685221 -3.21024
1 61 0.180371 -0.548603 -4.19535
1 16 0.11039 0.353406 -3.53154
1 59 0.108977 -0.869367 -2.24216
1 17 -0.511709 -0.182851 -2.94575
1 15 0.299188 0.360146 -2.53965
1 58 0.0655092 -0.896251 -1.24695
1 18 -0.654539 -0.102892 -1.96115
1 14 0.565702 -0.0892198 -1.69738
1 25 -0.0619604 0.700127 -1.73251
1 26 0.615424 0.77058 -1.01822
1 57 -0.125931 -0.823625 -0.264421
1 19 -0.506861 -0.142951 -0.973735
1 22 -0.352627 -0.126844 -0.94296
1 13 0.666974 -0.287638 -0.726535
1 21 -0.404634 0.836304 -0.733251
1 24 -0.110878 0.735325 -0.739776
1 27 0.495684 0.702599 -0.0262169
1 56 -0.203786 -0.721623 0.734939
1 20 -0.60971 0.187049 -0.0167833
1 23 -0.314907 0.131483 0.0245472
1 12 0.604432 -0.287212 0.268532
1 28 0.307096 0.739306 0.951488
1 55 -0.0912642 -0.726725 1.73915
1 42 -0.90339 -0.272256 2.13055
1 11 0.643903 -0.249293 1.27075
1 43 -0.35636 0.283474 1.51854
1 29 0.457736 0.642989 1.9249
1 54 -0.172941 -0.796822 2.72042
1 45 -0.908946 -0.192129 3.19367
1 10 0.599342 -0.224425 2.28153
1 44 -0.30348 0.229296 2.513
1 41 -0.214024 0.295335 2.58335
1 30 0.657808 0.513919 2.89265
1 53 -0.125217 -0.736476 3.73071
1 46 -0.861913 -0.310927 4.18927
1 9 0.627886 -0.310722 3.27932
1 8 0.75304 -0.459866 4.26165
1 40 -0.219451 0.432604 3.57865
1 37 -0.137316 0.314941 3.57432
1 31 0.769328 0.546527 3.88113
1 52 -0.0641455 -0.868538 4.72259
1 47 -0.762557 -0.19682 5.18097
1 7 0.753969 -0.339178 5.23903
1 38 -0.84125 0.655515 4.20218
1 36 0.0111395 0.154899 4.55085
1 39 0.010182 0.256979 4.55158
1 32 0.839014 0.631512 4.88238
1 33 0.122882 0.364302 5.52475
1 35 -0.0660854 0.444714 5.5104
1 51 -0.0223832 -0.742657 5.71205
1 48 -0.507217 -0.110712 6.14695
1 6 0.577205 -0.113758 6.21409
1 34 0.101352 0.680895 6.45421
1 50 -0.0868134 -0.611591 6.70739
1 49 -0.578049 0.159707 7.10568
1 5 0.436662 0.131473 7.18116
1 4 -0.0553936 0.133991 8.04263
1 3 -0.131151 -0.0508757 9.02234
1 1 0.0847247 -0.00342427 9.02125
1 2 -0.0972189 0.209505 9.98176
ITEM: TIMESTEP
50000
ITEM: NUMBER OF ATOMS
80
ITEM: BOX BOUNDS ff ff ff
-1.0000000000000000e+01 1.0000000000000000e+01
-1.0000000000000000e+01 1.0000000000000000e+01
-5.0000000000000000e+01 5.0000000000000000e+01
ITEM: ATOMS type id x y z
1 69 -0.0579645 -0.325496 -11.8836
1 68 0.0254017 -0.268675 -10.8822
1 70 0.135462 0.350134 -11.1774
1 67 0.431531 -0.106172 -9.97892
1 71 -0.399001 0.0101839 -10.4059
1 66 0.277066 -0.279326 -8.99854
1 72 -0.368561 0.283681 -9.43079
1 65 0.0105398 -0.44738 -8.05638
1 73 -0.314606 0.41743 -8.43803
1 80 0.709019 0.340654 -7.38164
1 64 0.0832274 -0.452825 -7.05553
1 74 -0.351684 0.333871 -7.43838
1 79 0.551853 0.217545 -6.38862
1 63 -0.171678 -0.450395 -6.10387
1 75 -0.411983 0.54071 -6.45771
1 76 -0.059531 0.498998 -5.51485
1 78 0.261488 0.369098 -5.43897
1 62 -0.245216 -0.360197 -5.10632
1 77 -0.0679189 0.461282 -4.50758
1 61 -0.0226263 -0.547722 -4.14511
1 16 0.21015 0.215527 -3.59111
1 60 0.211418 -0.729839 -3.18105
1 59 -0.0846781 -0.78719 -2.22445
1 17 -0.324535 0.0778254 -2.76536
1 15 0.326816 0.00113289 -2.61396
1 18 -0.679004 0.00535348 -1.82434
1 58 -0.109529 -0.824832 -1.23066
1 14 0.521203 -0.195566 -1.65176
1 25 -0.0090063 0.723601 -1.58244
1 19 -0.595964 -0.0647599 -0.827352
1 22 -0.611295 -0.140062 -0.815169
1 57 -0.206277 -0.868749 -0.241008
1 13 0.628223 -0.498959 -0.719593
1 21 -0.262793 0.762415 -0.554144
1 24 0.135657 0.570729 -0.602319
1 26 0.583793 0.426596 -0.838344
1 56 -0.0525731 -0.647347 0.732285
1 12 0.727653 -0.171091 0.22242
1 20 -0.264342 0.0188736 0.100037
1 23 -0.362291 0.0939211 0.131738
1 27 0.513421 0.741394 0.112243
1 55 0.00483634 -0.776559 1.73114