ITEM: TIMESTEP
0
ITEM: NUMBER OF ATOMS
80
ITEM: BOX BOUNDS ff ff ff
-2.0000000000000000e+01 2.0000000000000000e+01
-2.0000000000000000e+01 2.0000000000000000e+01
-4.0000000000000000e+01 4.0000000000000000e+01
ITEM: ATOMS type id x y z
1 80 -0.47803 -4.085 -0.596936
1 68 -3.41634 -3.2224 -0.611913
1 69 -3.16955 -3.35875 -0.648425
1 73 -2.1778 -3.77099 -0.568829
1 61 -5.02787 -1.82941 -0.957158
1 62 -4.81868 -2.07798 -0.716046
1 8 6.20031 2.67447 -0.837081
1 10 6.01891 3.47489 -0.955271
1 45 -5.88504 3.87129 -0.762589
1 42 -5.31235 5.01265 -0.640086
1 14 5.31272 5.01207 -0.589197
1 28 0.000365982 7.9 -0.815824
1 26 0.915977 7.83377 -0.881388
1 21 3.06772 7.1111 -0.656768
1 74 -1.93131 -3.84435 -0.248517
1 75 -1.68601 -3.90724 0.055985
1 76 -1.44201 -3.96031 -0.301562
1 77 -1.19933 -4.00414 0.528027
1 78 -0.957883 -4.03925 0.220752
1 79 -0.717522 -4.06609 0.47652
1 65 -4.14107 -2.72297 -0.228425
1 67 -3.66117 -3.07138 -0.34613
1 70 -2.92166 -3.48107 -0.317396
1 71 -2.67337 -3.59006 0.364029
1 72 -2.42527 -3.68646 -0.0118263
1 64 -4.37386 -2.52462 -0.393429
1 59 -5.41222 -1.28215 -0.253526
1 60 -5.22624 -1.56406 -0.428295
1 55 -6.00018 0.000555938 0.19117
1 56 -5.87977 -0.341901 -0.088372
1 2 6.10013 0.355282 -0.0717076
1 51 -6.26466 1.48532 -0.359713
1 52 -6.23383 1.09976 -0.0922737
1 53 -6.17862 0.722736 -0.111947
1 3 6.17851 0.722143 -0.0629778
1 4 6.23376 1.09915 0.0307284
1 5 6.26463 1.4847 0.259797
1 48 -6.20022 2.6751 -0.353784
1 49 -6.24875 2.27494 0.205573
1 50 -6.26996 1.87768 -0.395057
1 6 6.26997 1.87705 -0.0348432
1 7 6.24881 2.27431 -0.0153736
1 46 -6.01872 3.47553 0.384527
1 47 -6.12369 3.07604 0.272497
1 9 6.12383 3.0754 0.494996
1 43 -5.53158 4.64223 0.470128
1 11 5.88528 3.87066 0.0514697
1 12 5.72289 4.26036 -0.100827
1 13 5.53191 4.64163 -0.0799878
1 41 -5.06554 5.36989 -0.0145083
1 40 -4.79196 5.71162 0.482214
1 15 5.06595 5.36933 -0.377146
1 37 -3.82234 6.62144 0.449381
1 38 -4.16899 6.33952 -0.384462
1 39 -4.49269 6.03555 0.203044
1 36 -3.45442 6.87935 -0.128019
1 20 3.45502 6.87896 -0.453413
1 19 3.82291 6.62101 -0.0358324
1 35 -3.06709 7.11145 -0.15525
1 33 -2.24245 7.4918 0.495494
1 34 -2.66237 7.31608 0.0564417
1 30 -0.915254 7.83388 -0.0755936
1 27 0.459509 7.8834 -0.218347
1 29 -0.458779 7.88345 0.217407
1 25 1.36713 7.75148 0.4468
1 24 1.81035 7.63713 0.494368
1 66 -3.90311 -2.90508 0.804348
1 63 -4.60019 -2.30969 0.664595
1 57 -5.74059 -0.67042 0.862604
1 58 -5.5842 -0.984083 0.546904
1 54 -6.10028 0.355857 0.65023
1 1 6 0 0.990403
1 44 -5.72261 4.26098 0.962331
1 16 4.79242 5.71109 0.614466
1 17 4.49319 6.03505 0.658247
1 18 4.16953 6.33906 0.945315
1 32 -1.80965 7.63734 0.832931
1 31 -1.36641 7.75164 0.673984
1 22 2.66302 7.31578 0.609796
1 23 2.24313 7.49155 0.978883
ITEM: TIMESTEP
5000
ITEM: NUMBER OF ATOMS
80
ITEM: BOX BOUNDS ff ff ff
-2.0000000000000000e+01 2.0000000000000000e+01
-2.0000000000000000e+01 2.0000000000000000e+01
-4.0000000000000000e+01 4.0000000000000000e+01
ITEM: ATOMS type id x y z
1 69 0.314109 -1.704 -1.75364
1 60 -1.40385 -0.200231 -1.32309
1 62 -0.795839 -0.8636 -2.22638
1 61 -1.41322 -0.0842638 -2.32836
1 43 -0.553541 0.0608074 -1.71236
1 44 -1.12641 0.817162 -2.03273
1 13 1.07811 0.13636 -2.49158
1 14 1.12855 0.994555 -1.97496
1 70 -0.225759 -2.03815 -0.968874
1 59 -1.8114 -0.743244 -0.57874
1 63 -1.052 -1.46257 -1.49189
1 67 -0.644285 -0.762576 -0.876971
1 68 0.0115878 -0.754998 -1.61627
1 79 0.732973 -1.75147 -0.747273
1 2 1.66706 -1.46938 -1.04103
1 20 0.0497194 0.126545 -0.654853
1 3 1.076 -0.679919 -1.23669
1 12 1.72337 -0.234459 -1.81703
1 11 1.92544 -0.311772 -0.846591
1 42 -0.806459 0.597003 -0.922402
1 21 0.40997 0.44183 -1.54122
1 25 0.463604 1.41026 -0.832806
1 22 0.378822 1.38074 -1.16854
1 15 1.42593 1.03354 -1.01741
1 9 2.37861 0.909336 -0.626126
1 45 -1.47045 0.80134 -1.09429
1 30 -0.712337 1.65275 -1.27082
1 29 -0.255379 2.13437 -0.528391
1 71 0.00828677 -1.98773 0.00639047
1 58 -1.53969 -0.915864 0.378532
1 64 -1.06746 -1.43976 -0.487104
1 66 -0.606346 -1.03801 0.0960732
1 80 0.348311 -0.91409 -0.414547
1 78 0.592877 -1.11129 0.0209548
1 1 1.62434 -1.13273 -0.0961248
1 52 -2.13217 0.118273 0.147976
1 53 -1.15723 -0.109536 0.115944
1 54 -0.819695 -0.315797 1.05313
1 19 -0.116644 0.00818849 0.33774
1 4 0.973755 0.169703 -0.730698
1 8 1.93442 0.0187528 -0.602393
1 46 -1.85085 1.02286 -0.190563
1 41 -0.796659 0.732979 0.0542431
1 24 0.473782 0.767328 -0.0626505
1 16 1.73915 1.4244 -0.143189
1 10 1.71928 0.330214 -0.126384
1 31 -0.438981 1.47926 -0.311745
1 37 -0.935691 1.72994 0.829615
1 23 0.749411 1.69518 -0.303526
1 26 0.77543 1.73167 0.0658678
1 28 -0.0368731 2.39525 0.410786
1 65 -0.986337 -1.88474 0.40724
1 72 0.127659 -1.5517 0.903427
1 57 -1.06645 -0.881042 1.24893
1 75 0.135219 -1.12524 1.033
1 77 0.98613 -0.840264 0.911472
1 74 1.05124 -0.814198 1.21397
1 51 -2.03896 -0.321256 1.0308
1 55 -0.478658 0.15185 1.86544
1 5 0.966901 -0.157386 0.222529
1 18 0.502971 0.534347 0.907383
1 6 1.59475 0.0158863 0.998406
1 7 1.21479 -0.0594027 0.0744869
1 47 -1.80021 0.770353 0.765724
1 40 -0.7898 0.775078 1.06756
1 33 0.0144256 1.2523 1.60461
1 17 1.343 1.05155 0.691599
1 39 -1.23632 1.58588 1.41399
1 36 -0.557139 1.75368 1.75181
1 32 -0.0731976 1.32734 0.613976
1 27 0.645515 1.99498 1.0084
1 38 -1.68983 2.37575 0.982907
1 56 -0.703948 -0.765132 2.18604
1 73 0.283353 -1.06694 1.78495
1 76 0.491462 -0.470522 1.71275
1 50 -1.88423 0.165827 1.89886
1 48 -1.57379 0.56655 1.72446
1 49 -1.2702 0.345204 2.66485
1 34 0.0911518 0.832247 2.51531
1 35 -0.33312 1.70973 2.73843
ITEM: TIMESTEP
10000
ITEM: NUMBER OF ATOMS
80
ITEM: BOX BOUNDS ff ff ff
-2.0000000000000000e+01 2.0000000000000000e+01
-2.0000000000000000e+01 2.0000000000000000e+01
-4.0000000000000000e+01 4.0000000000000000e+01
ITEM: ATOMS type id x y z
1 12 0.0507338 0.271167 -3.95452
1 63 -0.264053 -0.9655 -3.31869
1 61 -1.26289 0.493092 -2.6547
1 62 -0.687745 -0.0585908 -3.26389
1 13 0.699687 0.0462541 -3.23977
1 11 0.954626 -0.155825 -3.96104
1 68 -0.833751 -0.671999 -2.47762
1 64 0.0446415 -1.69008 -2.69784
1 69 0.0946001 -0.541866 -2.13767
1 3 1.13852 -0.99018 -1.87938
1 60 -1.57733 0.0411705 -1.8096
1 42 -0.553459 0.286888 -1.89705
1 10 1.39575 0.0377341 -3.08389
1 9 1.67974 -0.141039 -2.1445
1 44 -0.972612 1.05349 -1.85091
1 43 -0.312976 0.96955 -2.58979
1 14 0.741146 0.460738 -2.34131
1 65 -0.205188 -1.64633 -1.71694
1 67 -0.930311 -0.885216 -1.51433
1 66 -0.723773 -1.61343 -0.853097
1 70 0.306622 -0.874228 -1.21573
1 2 1.15339 -1.41877 -0.976144
1 4 1.11285 -0.362146 -1.09584
1 59 -1.78621 -0.217119 -0.855887
1 41 -0.767046 0.0101951 -0.956109
1 21 0.197487 0.101419 -0.990154
1 8 1.99464 0.164407 -1.25986
1 45 -1.3516 0.871727 -0.947443
1 25 -0.252093 0.930302 -0.778564
1 22 0.2299 0.925535 -1.55574
1 15 1.15462 0.616747 -1.44233
1 23 0.363142 1.54398 -0.789004
1 72 0.38957 -1.67984 0.59797
1 58 -1.30242 -0.647347 -0.101824
1 71 0.229056 -1.26891 -0.301826
1 80 -0.405902 -0.584148 0.541158
1 1 1.33349 -1.649 -0.0217708
1 40 -0.682162 0.246201 0.00966352
1 20 0.366323 -0.0808485 -0.0212256
1 5 1.30699 -0.268189 -0.123852
1 7 1.91247 -0.107381 -0.314977
1 46 -1.71008 0.773249 -0.0135417
1 24 0.385661 0.895238 -0.0119001
1 16 1.38156 0.818329 -0.504284
1 17 1.64369 0.857641 0.45509
1 30 -0.735488 1.30703 0.216699
1 26 0.369735 1.73953 -0.752224
1 27 0.747384 1.78302 0.171782
1 73 0.307808 -1.80704 1.58521
1 52 -1.59687 -0.747387 1.93928
1 57 -1.10316 -1.31569 0.611524
1 56 -0.731056 -1.19716 1.53707
1 79 0.167517 -0.71767 1.352
1 47 -1.77336 0.538862 0.952232
1 53 -1.08346 -0.0949275 1.39114
1 39 -0.189107 0.265564 0.8788
1 19 0.822466 0.355464 0.755526
1 6 1.91721 -0.364174 0.659695
1 38 -0.838631 0.941847 1.27353
1 31 0.0115861 1.60773 0.818446
1 32 0.162509 1.06967 1.6373
1 18 1.42 0.814419 1.42649
1 29 0.00980458 1.34857 0.881333
1 28 0.768291 1.94508 1.15614
1 51 -1.93291 -0.620035 2.87109
1 74 0.480122 -1.46873 2.5083
1 55 -0.38259 -0.679151 2.32646
1 78 0.943123 -0.563228 1.94925
1 48 -1.76074 0.368048 1.94078
1 54 -0.370204 0.257894 1.98042
1 49 -1.36762 0.0951535 2.82995
1 36 -0.516449 0.800724 2.94891
1 37 -1.10744 1.1362 2.20502
1 33 0.35765 1.08786 2.6076
1 50 -1.45531 -0.380633 3.71565
1 77 1.24446 -0.231594 2.84507
1 75 0.461352 -1.01062 3.39705
1 35 -0.371468 -0.0579437 3.45862
1 34 0.330941 0.638193 3.49767
1 76 0.859559 -0.173462 3.7572
ITEM: TIMESTEP
15000
ITEM: NUMBER OF ATOMS
80
ITEM: BOX BOUNDS ff ff ff
-2.0000000000000000e+01 2.0000000000000000e+01
-2.0000000000000000e+01 2.0000000000000000e+01
-4.0000000000000000e+01 4.0000000000000000e+01
ITEM: ATOMS type id x y z
1 12 0.173961 0.141633 -4.80319
1 63 -0.307749 -0.194588 -3.75511
1 11 1.12502 -0.0688773 -4.65148
1 13 0.0625325 0.769415 -4.03987
1 64 0.597428 -0.591935 -3.70593
1 62 -1.05649 0.394131 -3.42096
1 61 -1.73943 0.0806561 -2.74921
1 10 1.56865 -0.235848 -3.77233
1 9 1.90135 -0.303254 -2.81734
1 14 0.267353 0.926013 -3.07266
1 66 -0.0213535 -1.67452 -2.26812
1 68 -1.09766 -0.620262 -2.94272
1 67 -0.878232 -1.55783 -2.7638
1 69 -0.543177 -0.659469 -2.11942
1 65 0.582809 -1.1205 -2.84701
1 3 0.593336 -0.443307 -1.76897
1 60 -2.01087 -0.0982111 -1.79792
1 42 -0.697082 0.311356 -1.52729
1 8 1.68136 -0.615424 -1.89556
1 44 -1.2645 0.852106 -1.97543
1 43 -0.569559 0.392923 -2.51639
1 15 0.869494 0.472072 -2.42343
1 1 0.405386 -1.71273 -0.951589
1 70 -0.208663 -0.839122 -1.19271
1 2 0.917383 -1.38906 -1.74117
1 59 -1.52757 -0.244102 -0.939494
1 41 -0.519132 0.0853836 -0.570187
1 4 0.681812 -0.0652657 -0.854136
1 7 1.23225 -0.667031 -0.995131
1 45 -1.42366 0.810254 -0.98561
1 22 0.0130008 1.27905 -1.41851
1 24 0.418431 0.84891 -1.2882
1 25 -0.39557 1.40503 -1.16664
1 16 1.36402 0.430832 -1.55302
1 21 0.518105 1.24433 -0.567646
1 26 -0.571247 1.87634 -0.295896
1 23 0.828231 1.47767 -1.94385
1 72 0.388207 -1.60612 0.469655
1 58 -1.25047 -0.68762 -0.0818499
1 57 -0.851595 -1.44319 0.426054
1 71 -0.0594128 -1.06124 -0.221768
1 6 1.02586 -0.925899 -0.0623473
1 40 -0.201894 0.548095 0.265805
1 5 0.393231 -0.179229 0.0894805
1 18 2.00358 0.668573 0.278685
1 46 -1.28409 0.793075 0.0010901
1 20 1.03901 0.773345 0.137798
1 17 1.56615 0.35781 -0.579787
1 27 -0.369095 1.54808 0.612325
1 28 0.549619 1.81113 0.316155
1 56 -1.0661 -1.30811 1.3799
1 73 0.297916 -1.53577 1.46331
1 80 -0.0833429 -0.708215 0.80337
1 39 -0.135051 0.349136 1.24887
1 79 0.651188 -0.570799 1.46554
1 47 -1.3421 0.528433 0.980227
1 29 0.374307 1.21697 1.09804
1 19 1.35793 0.164393 0.855373
1 55 -0.555138 -0.496373 1.63734
1 74 0.390342 -1.20683 2.41061
1 38 -0.326393 0.617591 2.17552
1 78 0.614324 -0.246669 2.40471
1 48 -1.33067 0.387648 1.9748
1 30 -0.23622 1.62383 1.75808
1 31 -0.259584 1.55394 2.74838
1 32 0.529891 0.984869 2.92666
1 54 -0.486674 -0.506331 2.62812
1 53 -0.903143 -0.994562 3.40043
1 75 0.399149 -1.29264 3.4084
1 49 -1.39565 -0.0329885 2.88699
1 50 -1.45521 0.177474 3.87904
1 77 0.291218 -0.41036 3.33101
1 37 -0.343162 0.536168 3.16866
1 33 1.23409 0.324633 3.17702
1 52 -0.905568 -0.637502 4.33014
1 51 -1.15722 0.214544 4.83028
1 76 0.473538 -0.753132 4.24596
1 36 -0.234831 0.333007 4.12733
1 35 0.482213 0.336076 4.80955
1 34 1.18815 0.0863655 4.16332
ITEM: TIMESTEP
20000
ITEM: NUMBER OF ATOMS
80
ITEM: BOX BOUNDS ff ff ff
-2.0000000000000000e+01 2.0000000000000000e+01
-2.0000000000000000e+01 2.0000000000000000e+01
-4.0000000000000000e+01 4.0000000000000000e+01
ITEM: ATOMS type id x y z
1 11 0.438762 -0.138486 -5.33924
1 12 -0.231767 0.589521 -5.17018
1 66 -0.33391 -1.66308 -3.85873
1 64 -0.0908229 -0.678921 -4.55267
1 65 0.535766 -1.36704 -4.21096
1 63 -0.863534 -0.133364 -4.87299
1 62 -1.09157 0.33003 -4.02446
1 10 0.875437 0.303481 -4.56876
1 13 0.0636436 0.89887 -4.26224
1 67 -0.228429 -0.680482 -3.81087
1 61 -1.03119 0.451899 -3.02626
1 68 -0.114968 -0.297865 -2.89465
1 9 0.744123 -0.0513 -3.64375
1 8 1.0175 -0.274581 -2.70177
1 14 0.834423 0.979603 -3.62631
1 69 -0.687649 -0.818222 -2.25531
1 3 0.228664 -0.57356 -2.01235
1 2 0.684518 -1.44426 -1.83285
1 7 1.50655 -0.151634 -1.82146
1 60 -1.43954 0.00361683 -2.23987
1 43 -0.479738 0.3144 -1.9752
1 44 -1.23918 0.951921 -1.81493
1 23 0.389236 1.71795 -2.29955
1 24 0.381506 0.822742 -1.83297
1 15 0.996336 0.815347 -2.65439
1 1 1.07048 -1.93752 -1.05975
1 70 -0.479829 -1.24113 -1.36983
1 6 1.23724 -0.749961 -1.05382
1 59 -1.34253 -0.453275 -1.3522
1 42 -0.754883 0.270288 -1.01037
1 4 0.1369 -0.0660634 -1.1778
1 16 1.38139 0.837166 -1.71617
1 17 1.8166 0.451631 -0.887571
1 45 -1.27728 0.963281 -0.821372
1 22 0.272578 1.3261 -1.40067
1 25 -0.179865 1.25656 -1.15805
1 21 0.559985 0.80369 -0.616047
1 58 -1.34647 -0.472457 -0.356339
1 72 -0.355048 -1.30842 0.531734
1 71 -0.219506 -1.05732 -0.429823
1 18 1.58483 -0.25923 -0.23251
1 57 -1.10047 -0.618153 0.599287
1 41 -0.318331 0.0731771 -0.129019
1 5 0.586241 -0.46004 -0.354836
1 46 -1.26109 0.674932 0.159825
1 20 1.02232 0.338002 0.15422
1 26 -0.279964 1.4841 -0.19146
1 73 -0.337931 -1.61292 1.50412
1 80 0.386562 -0.860818 1.58845
1 56 -0.740986 -0.533761 1.52299
1 40 -0.0956935 0.575739 0.717448
1 19 1.39775 -0.369035 0.743211
1 47 -1.39076 0.333972 1.095
1 39 -0.191795 0.689456 1.70347
1 27 0.526896 1.77312 0.342606
1 28 0.866595 1.33591 1.17505
1 55 -0.502488 -0.458117 2.51412
1 74 -0.245652 -1.49469 2.49645
1 48 -1.54764 -0.0220284 2.01833
1 79 0.362627 -0.0299465 2.15457
1 29 1.13695 0.572088 1.78472
1 38 -0.64666 0.615063 2.58524
1 30 1.26818 0.955473 2.70685
1 75 0.438965 -1.33891 3.19882
1 49 -1.73249 0.209002 2.97313
1 54 -0.654368 -0.510302 3.4992
1 78 0.310207 0.0879933 3.14744
1 37 -0.658823 0.78063 3.56353
1 31 0.498803 1.19563 3.28677
1 76 0.942275 -0.90948 3.9427
1 50 -1.49615 -0.0909141 3.90064
1 51 -1.29461 -0.260071 4.85791
1 53 -0.634017 -1.04024 4.35889
1 77 0.26092 -0.192921 4.11455
1 33 1.16568 0.025329 4.50072
1 36 -0.10254 0.872028 4.39242
1 32 0.939494 0.912749 4.13563
1 52 -0.990092 -1.09909 5.28845
1 34 1.00639 -0.145347 5.47218
1 35 0.136332 0.273835 5.16002
ITEM: TIMESTEP
25000
ITEM: NUMBER OF ATOMS
80
ITEM: BOX BOUNDS ff ff ff
-2.0000000000000000e+01 2.0000000000000000e+01
-2.0000000000000000e+01 2.0000000000000000e+01
-4.0000000000000000e+01 4.0000000000000000e+01
ITEM: ATOMS type id x y z
1 11 -0.16312 0.398316 -6.48569
1 12 -0.252241 0.372161 -5.48487
1 64 -0.58271 -0.591504 -5.47072
1 65 0.398937 -0.802245 -5.52828
1 13 -0.0719958 0.732668 -4.57509
1 10 0.50773 0.731056 -5.81612
1 66 0.243269 -0.896684 -4.54588
1 67 -0.361072 -0.420076 -3.89306
1 63 -1.11803 0.0217553 -4.8715
1 8 1.21947 0.439996 -4.11419
1 14 -0.722906 0.555712 -3.83562
1 9 0.812006 0.943141 -4.88459
1 7 0.772794 -0.154599 -3.44705
1 61 -1.53297 -0.307345 -2.97213
1 62 -1.4152 -0.230655 -3.94849
1 68 -0.59202 -0.965605 -3.08695
1 15 -0.348003 0.430113 -2.91414
1 16 0.432953 0.595232 -2.31618
1 69 -0.414629 -0.865611 -2.10679
1 2 0.603943 -1.41733 -1.87904
1 3 0.835583 -0.55574 -2.3182
1 60 -1.41032 -0.15472 -1.97851
1 6 0.360541 -0.58924 -2.65888
1 4 0.409682 -0.0895804 -1.55212
1 17 1.3549 0.541826 -1.98111
1 23 0.774749 1.52147 -1.92052
1 24 -0.214863 1.41379 -1.91736
1 1 0.0360389 -1.98856 -1.30618
1 59 -1.34325 -0.164118 -0.990257
1 70 -0.280382 -0.957276 -1.11049
1 5 0.621858 -1.02959 -1.7841
1 45 -1.79938 1.23308 -0.317068
1 43 -0.489229 0.259366 -1.15158
1 42 0.128792 -0.116229 -0.481636
1 18 1.47085 -0.16631 -1.28648
1 44 -1.05545 1.05982 -0.970387
1 25 0.0297435 1.16581 -0.965014
1 22 0.581337 0.808459 -1.22519
1 71 0.184995 -1.11491 -0.24358
1 58 -0.785448 -0.513249 -0.225668
1 46 -1.51003 0.882664 0.580327
1 41 0.396978 0.159961 0.441191
1 19 1.06426 -0.597194 -0.479793
1 21 1.21017 0.3717 -0.580023
1 26 0.357777 1.41104 -0.0525741
1 57 -0.670355 -0.79605 0.720903
1 72 0.425692 -0.957587 0.700501
1 56 -0.633771 -1.25899 1.61408
1 47 -0.946369 0.34904 1.24804
1 40 0.00565897 0.406296 1.31613
1 20 1.38671 -0.0630459 0.29989
1 27 0.753986 1.10914 0.817738
1 55 -0.395692 -1.14838 2.57899
1 73 0.402695 -1.18418 1.66785
1 74 1.14715 -1.06407 2.33148
1 48 -0.770109 -0.0992475 2.11177
1 79 0.340888 -0.102854 2.46504
1 80 0.988728 -0.0818358 1.70574
1 39 -0.42005 1.03046 1.97754
1 28 0.630512 1.01917 1.80168
1 29 1.0163 0.799005 2.7003
1 54 -0.281507 -1.19924 3.56756
1 75 0.932079 -0.889757 3.29506
1 49 -1.46659 -0.150162 2.83716
1 78 -0.151093 -0.0999952 3.31945
1 38 -0.279629 1.26499 2.9387
1 30 0.694774 0.559558 3.61269
1 53 -0.222583 -1.16952 4.55895
1 50 -1.247 0.0552967 3.79913
1 77 0.120787 -0.0830246 4.28145
1 76 0.81518 -0.799218 4.29681
1 37 -0.142684 1.07622 3.90861
1 31 0.815393 0.649867 4.59605
1 51 -0.822293 -0.059417 4.69495
1 52 -0.29579 -0.579747 5.3721
1 35 -0.405345 0.892262 5.80032
1 36 -0.552631 1.02499 4.82272
1 32 0.520524 0.0103811 5.31284
1 34 -0.272536 0.248776 6.55084
1 33 0.632869 -0.0698225 6.29884
ITEM: TIMESTEP
30000
ITEM: NUMBER OF ATOMS
80
ITEM: BOX BOUNDS ff ff ff
-2.0000000000000000e+01 2.0000000000000000e+01
-2.0000000000000000e+01 2.0000000000000000e+01
-4.0000000000000000e+01 4.0000000000000000e+01
ITEM: ATOMS type id x y z
1 10 0.390805 0.370697 -7.05677
1 65 0.0498457 -1.2832 -5.99526
1 12 -0.834398 -0.202062 -6.22961
1 11 -0.622476 0.342846 -7.03981
1 9 1.20379 -0.0276418 -6.61418
1 64 -0.61941 -0.821342 -5.42631
1 66 0.029739 -1.57722 -5.0421
1 13 -0.283611 0.359175 -5.59829
1 8 0.971615 0.0815318 -5.65011
1 67 -0.147009 -1.2274 -4.14624
1 63 -1.14976 -0.325203 -4.74354
1 62 -0.826032 -0.228419 -3.82507
1 14 -0.136585 0.808184 -4.71666
1 7 0.642849 -0.15933 -4.73451
1 68 -0.246084 -1.05241 -3.17305
1 6 1.04581 -0.41239 -3.85359
1 61 -0.583177 0.417987 -3.10744
1 5 0.637642 -0.446346 -2.91978
1 15 0.332424 0.424618 -3.90352
1 16 0.552487 0.753782 -2.99079
1 69 -0.532208 -1.08065 -2.2211
1 3 0.559392 -0.709403 -2.17217
1 60 -0.904246 0.577007 -2.17668
1 4 0.0195553 0.0876042 -2.37489
1 17 0.866949 0.503089 -2.08251
1 24 0.173592 1.15974 -1.79696
1 70 -0.186296 -1.02258 -1.28441
1 2 0.752403 -1.38224 -1.45264
1 19 1.20611 -0.583612 -0.441411
1 59 -1.14264 0.351568 -1.2278
1 43 -0.825314 0.603862 -0.262567
1 18 1.08204 -0.0492838 -1.27159
1 25 0.096937 1.1208 -0.799662
1 23 -0.18319 0.661878 -0.997543
1 71 -0.206955 -0.990944 -0.302153
1 1 0.878247 -1.51655 -0.471654
1 20 1.52639 -0.624059 0.512787
1 58 -1.29921 -0.440188 -0.632619
1 42 -0.288675 -0.101271 0.191694
1 21 0.979134 0.184999 0.353702
1 44 -1.28285 1.49715 -0.0974428
1 45 -1.35476 1.1554 0.819651
1 26 -0.121101 1.65146 0.0174442
1 22 0.429661 0.783893 -0.231825
1 57 -1.18129 -0.827545 0.285283
1 56 -0.915126 -1.02953 1.22741
1 72 0.0651314 -1.00519 0.655453
1 41 0.0708519 0.171876 1.08642
1 46 -1.16464 0.272688 1.24314
1 27 0.110233 1.73175 0.985461
1 80 1.02622 0.462445 1.57409
1 55 -0.649917 -0.91409 2.19203
1 73 0.343942 -1.02193 1.60332
1 74 0.784201 -1.23476 2.48739
1 47 -1.32662 0.098001 2.20789
1 40 -0.325853 0.450206 1.96366
1 79 0.95563 -0.0437648 2.44515
1 28 0.575576 1.51936 1.83704
1 39 -0.374471 0.975453 2.80544
1 54 -0.266028 -1.06775 3.09783
1 75 1.0963 -0.752951 3.29655
1 48 -0.920769 0.287789 3.09558
1 78 0.401751 0.115419 3.25627
1 49 -1.17016 0.238 4.05838
1 38 -0.189474 1.01074 3.77374
1 29 0.987236 1.24106 2.70275
1 30 1.20965 1.03757 3.67109
1 53 -0.100452 -1.29197 4.06602
1 50 -1.53503 0.415268 4.9695
1 77 -0.10478 -0.139917 4.0809
1 76 0.87454 -0.278347 4.13473
1 37 -0.0788256 0.852621 4.76074
1 31 0.996309 1.09176 4.63575
1 52 -0.215294 -0.874269 4.96689
1 51 -0.629888 0.025327 5.15026
1 32 0.635874 0.324576 5.16144
1 36 -0.112558 0.966544 5.76158
1 34 -0.0302846 -0.653831 6.59291
1 35 -0.133271 0.348281 6.55327
1 33 0.639874 -0.134404 6.05395
ITEM: TIMESTEP
35000
ITEM: NUMBER OF ATOMS
80
ITEM: BOX BOUNDS ff ff ff
-2.0000000000000000e+01 2.0000000000000000e+01
-2.0000000000000000e+01 2.0000000000000000e+01
-4.0000000000000000e+01 4.0000000000000000e+01
ITEM: ATOMS type id x y z
1 10 0.0810891 0.480611 -7.3911
1 11 -0.925005 0.490737 -7.31934
1 12 -0.629097 0.763042 -6.41385
1 65 -0.238205 -0.289235 -6.19909
1 9 0.531689 0.636406 -6.51441
1 8 0.735933 0.145414 -5.65753
1 64 -0.321748 -0.209883 -5.21618
1 66 0.266923 -0.913022 -5.61584
1 7 0.943299 0.161811 -4.67813
1 13 -0.263589 0.716733 -5.48811
1 67 0.35114 -1.0404 -4.61551
1 63 -0.444532 -0.390909 -4.24793
1 6 0.745714 0.101635 -3.69146
1 14 -0.222239 0.826852 -4.49823
1 15 0.189908 1.19709 -3.68294
1 68 0.105757 -1.25456 -3.67036
1 69 -0.401277 -1.1407 -2.82744
1 62 -0.6084 -0.0937509 -3.30715
1 5 0.32353 -0.37168 -2.93529
1 61 -0.998001 0.734716 -2.89769
1 16 0.530299 0.725744 -2.85234
1 70 -0.753824 -0.707032 -1.99953
1 4 0.655977 -0.600042 -2.02181
1 60 -1.31337 0.480073 -1.97911
1 23 -0.348417 0.210033 -2.29669
1 17 0.960756 0.481579 -1.99355
1 24 -0.0523936 1.1448 -2.04138
1 71 -0.625246 -1.02557 -1.06255
1 3 0.589756 -0.833239 -1.06353
1 59 -1.15249 -0.0406181 -1.12143
1 22 0.0438678 0.246996 -1.37659
1 18 1.48023 0.249771 -1.17216
1 25 0.244012 1.0228 -1.08924
1 72 -0.137912 -0.776403 -0.223119
1 2 1.05329 -0.80149 -0.174929
1 58 -1.64204 -0.391362 -0.320601
1 21 0.452365 0.0819473 -0.471447
1 19 1.67833 0.393931 -0.205335
1 44 -0.802806 1.34231 0.19649
1 43 -0.601282 0.465699 -0.242373
1 26 0.30723 1.18397 -0.130172
1 56 -1.10749 -0.749429 1.2714
1 73 -0.228481 -1.20311 0.671886
1 1 1.04896 -1.05154 0.79342
1 57 -1.61226 -0.155154 0.649748
1 42 -0.171 -0.0881044 0.476902
1 41 0.0721323 -0.191362 1.43934
1 20 0.88968 0.245363 0.416092
1 80 1.78512 -0.147698 1.36088
1 45 -0.625386 0.610412 0.854343
1 27 0.519863 1.33534 0.844258
1 55 -0.944509 -1.11725 2.19034
1 74 0.150807 -1.37082 1.58558
1 75 0.664596 -1.58465 2.42479
1 47 -1.0752 0.187802 2.56678
1 40 -0.162132 -0.266028 2.41228
1 79 1.13345 0.28855 1.95941
1 46 -0.539977 0.646035 1.84862
1 28 0.532216 1.0381 1.80975
1 54 -0.745757 -1.00024 3.15988
1 48 -1.25406 0.176652 3.55493
1 76 0.595267 -1.23921 3.37367
1 78 0.896503 0.264804 2.9257
1 39 -0.0093823 0.359853 3.18611
1 29 0.340446 1.25357 2.76229
1 30 0.712543 1.11102 3.67622
1 53 -0.274614 -0.842072 4.03521
1 49 -1.30866 -0.186198 4.47878
1 77 0.712417 -0.321935 3.72359
1 38 -0.416151 0.484774 4.10208
1 31 0.653685 0.865308 4.65629
1 52 0.430328 -0.702533 4.73759
1 51 -0.122657 -0.499928 5.54738
1 50 -1.08695 -0.212735 5.46029
1 37 -0.221289 0.430871 5.075
1 32 0.908038 0.403593 5.4976
1 33 0.823057 -0.209972 6.28096
1 36 -0.254477 0.363471 6.07048
1 35 -0.604346 0.194089 6.99143
1 34 0.10647 -0.524426 6.90799
ITEM: TIMESTEP
40000
ITEM: NUMBER OF ATOMS
80
ITEM: BOX BOUNDS ff ff ff
-2.0000000000000000e+01 2.0000000000000000e+01
-2.0000000000000000e+01 2.0000000000000000e+01
-4.0000000000000000e+01 4.0000000000000000e+01
ITEM: ATOMS type id x y z
1 11 -0.291402 0.207061 -8.15955
1 10 0.238613 -0.321608 -7.4769
1 12 -0.528132 0.568446 -7.26973
1 9 0.764029 0.0244142 -6.70691
1 13 -0.192379 0.693191 -6.34527
1 67 0.557539 -1.16858 -5.21605
1 64 -0.702073 -0.0269083 -4.98875
1 66 0.143052 -0.734699 -6.03687
1 65 -0.803769 -0.420937 -5.89241
1 8 0.917765 0.291451 -5.75623
1 14 0.0861356 0.83207 -5.39594
1 68 -0.0199288 -0.728984 -4.5285
1 63 -1.06491 0.0192111 -4.05006
1 7 1.11586 0.562683 -4.80235
1 6 0.673531 -0.0276604 -4.13233
1 15 0.0265227 0.884894 -4.39321
1 69 -0.17497 -0.722627 -3.54708
1 70 0.197135 -0.965452 -2.66585
1 5 1.07568 -0.395085 -3.27301
1 62 -1.32332 0.53634 -3.23137
1 16 0.226508 0.812842 -3.41527
1 17 0.914803 0.770846 -2.70375
1 71 -0.169199 -0.941033 -1.7363
1 4 0.933784 -0.405857 -2.2811
1 23 0.124703 0.347727 -2.19446
1 18 0.955013 0.709141 -1.70423
1 61 -0.963399 0.380434 -2.31342
1 72 -0.427156 -0.970166 -0.774681
1 3 0.975221 -0.552419 -1.29846
1 60 -0.922062 -0.29049 -1.56645
1 59 -1.29427 -0.253922 -0.649597
1 22 0.0609249 -0.0229564 -1.27601
1 21 0.570053 0.46793 -0.575224
1 24 -0.388505 1.00846 -1.65692
1 25 -0.492881 1.1942 -0.684587
1 19 0.780928 0.723399 -0.717949
1 58 -1.23267 -0.291677 0.348832
1 73 -0.47393 -1.13307 0.226256
1 2 1.08965 -0.770246 -0.337602
1 43 -0.570918 0.250832 -0.19937
1 44 -1.13899 0.806301 0.416368
1 26 -0.0196314 1.20783 0.202145
1 20 1.27518 0.480699 0.137372
1 74 0.0279568 -1.51808 0.984128
1 1 0.903992 -0.617417 0.646627
1 57 -0.947825 -0.693938 1.21404
1 42 -0.207848 -0.0663156 0.673822
1 45 -0.903858 0.384127 1.30819
1 27 -0.03463 1.24796 1.2047
1 80 0.593121 0.414713 1.1358
1 56 -0.678924 -0.66364 2.18617
1 75 0.00327478 -1.51135 1.98667
1 46 -1.00812 0.584474 2.28517
1 41 0.162315 -0.363286 1.55577
1 40 0.388292 0.0829971 2.40881
1 28 -0.10294 1.16342 2.19812
1 79 1.13865 0.671849 1.93822
1 55 -0.806432 -0.671278 3.17876
1 54 0.0184439 -0.955516 3.67435
1 76 0.392059 -1.00336 2.75429
1 47 -0.949984 0.470952 3.28028
1 39 0.0785166 0.0175093 3.35406
1 78 1.18389 0.528613 2.93563
1 77 1.02438 -0.402034 3.26402
1 29 0.0344658 1.21588 3.18041
1 49 -0.639905 -0.846584 4.51121
1 53 0.376202 -1.06509 4.60597
1 48 -1.10482 -0.052753 4.10271
1 38 -0.174676 0.0846092 4.32388
1 30 0.377679 0.992809 4.08584
1 52 0.2135 -0.876813 5.56652
1 50 -0.606449 -0.670368 5.49431
1 37 -0.55617 0.441691 5.17023
1 32 0.87054 0.307186 5.87905
1 31 0.542191 0.565253 4.98184
1 51 -0.264942 -0.675323 6.43191
1 33 0.823305 -0.225522 6.73225
1 36 -0.745868 0.345928 6.14002
1 34 0.340125 0.0881428 7.54824
1 35 -0.267661 0.63453 6.97111
ITEM: TIMESTEP
45000
ITEM: NUMBER OF ATOMS
80
ITEM: BOX BOUNDS ff ff ff
-2.0000000000000000e+01 2.0000000000000000e+01
-2.0000000000000000e+01 2.0000000000000000e+01
-4.0000000000000000e+01 4.0000000000000000e+01
ITEM: ATOMS type id x y z
1 10 0.132418 0.506355 -8.51177
1 11 -0.494806 -0.116809 -8.02362
1 9 0.602093 0.895274 -7.72948
1 66 -0.24119 -1.00422 -6.32658
1 65 -0.9485 -0.310361 -6.17875
1 12 -0.733156 0.375994 -7.17707
1 8 0.594166 0.838332 -6.72196
1 13 -0.870424 0.76459 -6.27314
1 67 -0.0780282 -0.969048 -5.34302
1 64 -0.843807 -0.154494 -5.20535
1 7 0.699507 0.548511 -5.76893
1 14 -0.370422 0.843041 -5.40503
1 63 -0.743128 0.374625 -4.36055
1 68 -0.510164 -0.823187 -4.46204
1 6 0.766913 -0.0997457 -5.008
1 5 0.699872 -0.615438 -4.15536
1 15 0.17052 0.768018 -4.55012
1 16 0.878295 0.461266 -3.91565
1 4 0.729508 -0.851787 -3.19935
1 69 -0.292849 -0.788518 -3.47604
1 17 0.712822 0.514665 -2.93096
1 62 -0.694279 0.616824 -3.38946
1 70 -0.274953 -0.952136 -2.48038
1 3 0.68876 -1.44441 -2.38894
1 60 -0.79805 0.0476919 -1.69215
1 61 -0.594315 0.722626 -2.40465
1 18 0.383198 -0.041779 -2.15194
1 71 -0.3119 -1.27669 -1.53726
1 72 -0.301305 -1.01811 -0.572488
1 2 0.675316 -1.05079 -1.4673
1 59 -1.19853 -0.379085 -0.880941
1 23 -0.417422 0.553859 -0.878014
1 22 0.168211 -0.191168 -1.20584
1 21 0.930602 0.186928 -0.681154
1 24 -1.26092 0.975868 -0.526681
1 19 0.382455 0.829805 -1.68855
1 73 -0.252237 -1.1504 0.425931
1 1 0.99056 -1.07798 -0.515139
1 58 -1.39575 -0.20186 0.0814169
1 43 0.340206 0.300134 0.201074
1 25 -0.730755 1.12977 0.328
1 20 0.578019 1.12051 -0.739535
1 57 -1.00412 -0.658304 0.887378
1 74 0.00921638 -1.03379 1.39055
1 42 0.0180782 -0.0243162 1.09523
1 44 -0.0526192 0.483192 1.09858
1 79 1.4991 0.171669 1.48671
1 26 -0.253213 1.48563 1.13021
1 27 0.357289 1.14971 1.86893
1 56 -1.07322 -0.609076 1.88885
1 75 0.460968 -1.21548 2.24822
1 80 0.875172 -0.563566 1.18126
1 46 -0.884642 0.501141 2.83376
1 41 0.0617593 -0.162199 2.07737
1 45 -0.496851 0.754512 1.94238
1 28 0.545335 0.969736 2.83004
1 78 1.57453 0.554147 2.40334
1 55 -0.865377 -0.618873 2.87105
1 76 1.29368 -0.701345 2.4484
1 47 -1.19888 0.0971221 3.67806
1 40 0.424767 -0.243698 3.00837
1 77 1.35117 -0.0357932 3.19236
1 29 0.874147 1.03264 3.76847
1 54 -0.278132 -0.890812 3.63398
1 53 0.268804 -1.23801 4.38925
1 48 -1.16268 0.338279 4.66145
1 39 0.40107 0.0694261 3.95963
1 38 -0.156072 0.762897 4.43151
1 30 0.933726 0.567222 4.65399
1 52 0.548913 -1.14639 5.34596
1 49 -0.68295 -0.383326 5.13703
1 50 -0.63547 -0.378939 6.14212
1 31 0.811432 0.425417 5.62393
1 37 -0.138528 0.976248 5.4034
1 51 0.204715 -0.899635 6.2501
1 33 0.510871 0.00152043 7.48467
1 32 0.418186 0.139571 6.49943
1 36 -0.524697 0.819342 6.3058
1 34 -0.469049 -0.137159 7.61542
1 35 -0.33299 0.784609 7.2899
ITEM: TIMESTEP
50000
ITEM: NUMBER OF ATOMS
80
ITEM: BOX BOUNDS ff ff ff
-2.0000000000000000e+01 2.0000000000000000e+01
-2.0000000000000000e+01 2.0000000000000000e+01
-4.0000000000000000e+01 4.0000000000000000e+01
ITEM: ATOMS type id x y z
1 10 0.582506 -0.262279 -7.68652
1 11 -0.190669 -0.830245 -7.93603
1 12 -0.397133 0.15221 -8.0165
1 9 1.01657 0.599647 -7.40756
1 66 -0.788405 -0.781522 -6.65002
1 65 -1.28545 0.0283494 -6.32488
1 8 1.07989 0.512301 -6.41248
1 13 -0.279941 0.501445 -7.07835
1 67 -0.149028 -0.799584 -5.88043
1 64 -0.823688 0.082612 -5.44797
1 7 1.22661 0.173605 -5.49371
1 6 0.977024 -0.255891 -4.61599
1 14 -0.199193 0.549871 -6.07495
1 15 0.146373 0.818899 -5.18693
1 5 0.584055 -0.558832 -3.73585
1 68 -0.0662398 -0.807078 -4.87096
1 16 0.257982 0.759656 -4.18698
1 63 -0.971185 0.539479 -4.57243
1 62 -0.596125 1.01615 -3.77621
1 70 -0.602569 -0.63596 -3.01005
1 4 0.309606 -1.13546 -2.97179
1 61 -0.239171 0.572989 -2.97477
1 69 -0.532486 -0.860036 -3.98625
1 17 0.708075 0.409899 -3.37628
1 71 -0.973268 -0.99845 -2.14471
1 3 0.112209 -0.631854 -2.12771
1 60 -0.737734 0.231006 -2.19076
1 18 0.597582 0.357318 -2.36097
1 19 -0.0300483 0.815256 -1.69956
1 72 -0.726548 -1.08852 -1.17215
1 2 0.368687 -0.834589 -1.19167
1 59 -1.41812 0.134927 -1.46676
1 23 0.209908 0.00264289 -0.127926
1 22 0.900643 0.0110278 -0.860861
1 21 1.55596 0.762918 -0.979201
1 20 0.608762 1.07675 -0.965129
1 73 -0.202371 -1.15858 -0.313956
1 58 -1.23699 0.0800266 -0.492526
1 1 1.27817 -1.17423 -1.06433
1 24 -0.133046 0.877003 0.209266
1 25 -0.328769 1.65195 0.795037
1 56 -0.918989 -0.797422 1.25992
1 57 -1.12725 -0.302451 0.425039
1 74 0.0196394 -1.1327 0.643813
1 75 0.433551 -0.621863 1.40607
1 44 -0.71755 0.445338 1.18781
1 43 0.244343 0.378656 0.911579
1 80 1.54204 -0.637775 1.25775
1 26 -0.395483 1.56017 1.78669
1 55 -0.257301 -0.975743 1.9994
1 45 -0.750278 -0.0515584 2.05079
1 42 0.556597 0.560754 1.84673
1 76 0.622031 -0.345486 2.33602
1 79 1.66326 0.165465 1.81984
1 27 0.00318678 1.45819 2.69514
1 78 1.63442 0.871368 2.49824
1 54 -0.026084 -0.9793 2.97486