ITEM: TIMESTEP
0
ITEM: NUMBER OF ATOMS
80
ITEM: BOX BOUNDS ff ff ff
-2.0000000000000000e+01 2.0000000000000000e+01
-2.0000000000000000e+01 2.0000000000000000e+01
-4.0000000000000000e+01 4.0000000000000000e+01
ITEM: ATOMS type id x y z
1 80 -0.47803 -4.085 -0.596936
1 68 -3.41634 -3.2224 -0.611913
1 69 -3.16955 -3.35875 -0.648425
1 73 -2.1778 -3.77099 -0.568829
1 61 -5.02787 -1.82941 -0.957158
1 62 -4.81868 -2.07798 -0.716046
1 8 6.20031 2.67447 -0.837081
1 10 6.01891 3.47489 -0.955271
1 45 -5.88504 3.87129 -0.762589
1 42 -5.31235 5.01265 -0.640086
1 14 5.31272 5.01207 -0.589197
1 28 0.000365982 7.9 -0.815824
1 26 0.915977 7.83377 -0.881388
1 21 3.06772 7.1111 -0.656768
1 74 -1.93131 -3.84435 -0.248517
1 75 -1.68601 -3.90724 0.055985
1 76 -1.44201 -3.96031 -0.301562
1 77 -1.19933 -4.00414 0.528027
1 78 -0.957883 -4.03925 0.220752
1 79 -0.717522 -4.06609 0.47652
1 65 -4.14107 -2.72297 -0.228425
1 67 -3.66117 -3.07138 -0.34613
1 70 -2.92166 -3.48107 -0.317396
1 71 -2.67337 -3.59006 0.364029
1 72 -2.42527 -3.68646 -0.0118263
1 64 -4.37386 -2.52462 -0.393429
1 59 -5.41222 -1.28215 -0.253526
1 60 -5.22624 -1.56406 -0.428295
1 55 -6.00018 0.000555938 0.19117
1 56 -5.87977 -0.341901 -0.088372
1 2 6.10013 0.355282 -0.0717076
1 51 -6.26466 1.48532 -0.359713
1 52 -6.23383 1.09976 -0.0922737
1 53 -6.17862 0.722736 -0.111947
1 3 6.17851 0.722143 -0.0629778
1 4 6.23376 1.09915 0.0307284
1 5 6.26463 1.4847 0.259797
1 48 -6.20022 2.6751 -0.353784
1 49 -6.24875 2.27494 0.205573
1 50 -6.26996 1.87768 -0.395057
1 6 6.26997 1.87705 -0.0348432
1 7 6.24881 2.27431 -0.0153736
1 46 -6.01872 3.47553 0.384527
1 47 -6.12369 3.07604 0.272497
1 9 6.12383 3.0754 0.494996
1 43 -5.53158 4.64223 0.470128
1 11 5.88528 3.87066 0.0514697
1 12 5.72289 4.26036 -0.100827
1 13 5.53191 4.64163 -0.0799878
1 41 -5.06554 5.36989 -0.0145083
1 40 -4.79196 5.71162 0.482214
1 15 5.06595 5.36933 -0.377146
1 37 -3.82234 6.62144 0.449381
1 38 -4.16899 6.33952 -0.384462
1 39 -4.49269 6.03555 0.203044
1 36 -3.45442 6.87935 -0.128019
1 20 3.45502 6.87896 -0.453413
1 19 3.82291 6.62101 -0.0358324
1 35 -3.06709 7.11145 -0.15525
1 33 -2.24245 7.4918 0.495494
1 34 -2.66237 7.31608 0.0564417
1 30 -0.915254 7.83388 -0.0755936
1 27 0.459509 7.8834 -0.218347
1 29 -0.458779 7.88345 0.217407
1 25 1.36713 7.75148 0.4468
1 24 1.81035 7.63713 0.494368
1 66 -3.90311 -2.90508 0.804348
1 63 -4.60019 -2.30969 0.664595
1 57 -5.74059 -0.67042 0.862604
1 58 -5.5842 -0.984083 0.546904
1 54 -6.10028 0.355857 0.65023
1 1 6 0 0.990403
1 44 -5.72261 4.26098 0.962331
1 16 4.79242 5.71109 0.614466
1 17 4.49319 6.03505 0.658247
1 18 4.16953 6.33906 0.945315
1 32 -1.80965 7.63734 0.832931
1 31 -1.36641 7.75164 0.673984
1 22 2.66302 7.31578 0.609796
1 23 2.24313 7.49155 0.978883
ITEM: TIMESTEP
5000
ITEM: NUMBER OF ATOMS
80
ITEM: BOX BOUNDS ff ff ff
-2.0000000000000000e+01 2.0000000000000000e+01
-2.0000000000000000e+01 2.0000000000000000e+01
-4.0000000000000000e+01 4.0000000000000000e+01
ITEM: ATOMS type id x y z
1 69 -2.73111 -4.08071 -1.70238
1 70 -2.3573 -4.4037 -0.853899
1 71 -1.94544 -3.49155 -0.846386
1 64 -4.88619 -2.63403 -0.636364
1 68 -2.30539 -3.22953 -1.41463
1 65 -4.17264 -3.2853 -0.901899
1 67 -3.0963 -2.62444 -1.53271
1 66 -3.6625 -2.43616 -0.728325
1 61 -6.39757 -1.73728 -1.45986
1 60 -5.44544 -1.52519 -1.25127
1 48 -6.75712 2.15247 -0.395971
1 21 2.6318 5.28797 -1.11941
1 37 -2.61197 7.02428 -0.546678
1 26 0.0797424 6.36051 -0.849391
1 30 -1.06621 7.39934 -0.87216
1 77 0.0982293 -5.22707 0.317016
1 73 -1.21891 -4.10382 0.207525
1 72 -1.16957 -4.13156 -0.78611
1 78 0.140032 -4.22172 0.407651
1 79 0.373757 -3.54368 -0.285856
1 80 0.325377 -2.54513 -0.346405
1 62 -6.34856 -1.68777 -0.474488
1 63 -5.60267 -2.04692 -1.01811
1 59 -5.84279 -1.09612 -0.426325
1 58 -6.04263 -0.628916 0.446967
1 53 -5.06567 0.751337 0.536465
1 56 -5.16528 -0.930099 -0.0728728
1 1 4.71426 0.176768 -0.584446
1 51 -6.86376 0.960106 0.388981
1 52 -5.916 1.2772 0.524231
1 50 -5.92627 1.33278 0.45067
1 5 6.50788 1.17501 0.270591
1 49 -6.78306 1.84231 0.557517
1 8 6.15834 2.51262 0.57882
1 6 6.96211 1.79282 -0.369229
1 47 -6.96799 3.12589 -0.519234
1 46 -6.45819 3.19046 0.333975
1 9 6.77117 3.24209 0.833373
1 45 -6.46924 4.14457 0.633888
1 13 5.23422 4.92135 -0.27955
1 12 5.32701 3.95898 -0.0198125
1 11 6.30098 4.00183 0.0508785
1 44 -5.86554 4.89604 0.862733
1 42 -5.08174 5.53438 0.234083
1 40 -4.23851 6.35928 0.851909
1 20 2.36785 5.3548 -0.158189
1 18 3.81866 5.44317 0.548873
1 14 4.41452 5.47047 -0.438333
1 39 -3.78994 6.56828 -0.0142533
1 36 -3.27411 6.48902 -0.00209275
1 35 -2.62797 6.29961 0.735294
1 34 -1.81145 5.93295 0.316078
1 25 0.484831 6.59017 0.0273374
1 28 0.189692 7.20975 -0.0415996
1 24 1.48756 6.5627 -0.0526533
1 23 2.40829 6.2435 0.146388
1 22 2.7112 6.22651 -0.801584
1 16 4.75511 6.75211 0.548987
1 15 4.72933 6.43635 -0.401387
1 38 -3.06516 7.15708 0.334389
1 31 -1.30414 7.36343 0.0962256
1 29 -0.745114 6.85078 -0.11276
1 27 0.107948 7.33275 -1.02995
1 76 -0.839057 -4.94553 0.551891
1 74 -1.84651 -3.43131 0.600224
1 75 -1.01251 -3.9803 0.777728
1 57 -5.14338 -0.585649 0.875982
1 55 -5.04093 -0.198661 0.573119
1 3 5.89108 0.937231 0.771261
1 4 6.72133 0.390549 0.854572
1 54 -5.04659 0.31758 1.41926
1 2 5.16053 0.492609 0.239485
1 7 6.69371 1.67716 0.580799
1 10 5.81716 3.52815 0.790928
1 43 -5.05693 4.5487 0.412549
1 41 -5.23719 6.32882 0.847394
1 19 2.83649 5.37066 0.720623
1 33 -1.34846 6.23485 1.17456
1 17 4.22231 6.14718 1.13044
1 32 -1.12691 7.19831 1.05525
ITEM: TIMESTEP
10000
ITEM: NUMBER OF ATOMS
80
ITEM: BOX BOUNDS ff ff ff
-2.0000000000000000e+01 2.0000000000000000e+01
-2.0000000000000000e+01 2.0000000000000000e+01
-4.0000000000000000e+01 4.0000000000000000e+01
ITEM: ATOMS type id x y z
1 68 -2.56752 -2.84176 -2.40813
1 67 -3.19172 -3.02395 -1.65931
1 69 -1.98873 -3.49974 -1.9023
1 70 -1.8023 -3.03633 -1.03194
1 62 -4.66617 -1.9973 -1.18466
1 63 -4.56217 -2.60751 -1.97611
1 64 -3.8069 -2.1126 -1.5069
1 66 -3.21408 -2.01711 -1.69083
1 71 -2.13344 -2.13852 -0.754511
1 60 -5.96061 -1.38664 -0.430711
1 49 -6.19621 1.04187 -0.630232
1 52 -4.94137 0.839416 -0.942444
1 34 -2.06374 5.93197 -0.880851
1 14 4.28964 5.7136 -0.225329
1 36 -2.81581 6.5349 -0.672031
1 35 -2.41388 6.55498 -1.58842
1 28 -0.121772 6.42281 -1.32839
1 27 0.742227 6.11215 -0.955788
1 30 -1.09631 7.74523 -0.189515
1 72 -2.37615 -2.74297 -0.0127911
1 80 -1.01659 -3.48346 -0.285882
1 79 -0.139501 -3.15234 0.0538044
1 61 -5.26871 -1.20262 -1.13509
1 65 -3.24873 -2.1015 -0.690964
1 59 -5.66367 -0.940578 0.406841
1 54 -4.91396 0.148534 0.379426
1 55 -3.99386 0.26657 -0.0162891
1 5 6.61769 0.641368 0.532947
1 50 -6.11514 0.469036 0.188178
1 51 -5.13871 0.617179 0.00821963
1 53 -4.39753 0.832961 -0.108777
1 1 4.37763 1.12166 0.315771
1 4 6.29296 -0.242164 0.201277
1 6 7.09043 1.3786 0.0519542
1 48 -5.67959 1.89911 -0.768671
1 47 -5.11473 2.22853 -0.0254375
1 9 5.47335 1.99152 0.320764
1 46 -5.1107 3.22036 0.057885
1 43 -4.46707 3.88471 0.36751
1 10 5.11872 2.8334 -0.0749996
1 44 -5.3932 4.16327 0.614981
1 42 -4.20599 4.8611 0.402665
1 11 4.75856 3.78734 -0.0328117
1 12 5.41958 4.22755 -0.634499
1 33 -1.17952 5.86974 -0.403097
1 21 1.62811 4.79298 -0.253238
1 23 1.82447 5.55714 -0.29287
1 16 4.19977 5.51233 0.172229
1 13 4.74416 4.83693 -0.247665
1 29 -0.734122 6.99761 -0.765515
1 32 -1.45041 6.58786 0.253712
1 26 0.436229 5.75398 -0.08815
1 15 3.69904 6.36468 0.286348
1 37 -3.14215 6.34085 0.247957
1 31 -1.67874 7.0596 -0.588032
1 74 -1.80952 -3.80937 1.48093
1 75 -0.893954 -4.19499 1.54731
1 76 0.0937847 -4.33377 1.4973
1 73 -1.97077 -3.46848 0.562289
1 78 0.669744 -2.86114 0.536456
1 77 0.711439 -3.58668 1.24186
1 58 -4.83075 -0.877971 0.939318
1 57 -4.08293 -0.947852 0.305741
1 56 -3.83497 -0.163817 0.875576
1 2 4.58147 0.412604 0.981024
1 3 5.51804 0.15727 0.700912
1 7 6.78141 1.14619 0.982515
1 8 5.79667 1.18569 0.817423
1 45 -5.66615 3.23073 0.895047
1 20 1.44505 4.99134 0.711489
1 22 2.39272 5.02313 0.357422
1 19 2.14813 4.38541 1.08178
1 18 3.02268 4.70186 1.41925
1 41 -4.53192 5.42729 1.17147
1 40 -5.0404 5.87723 1.89984
1 17 3.8295 5.11757 0.998452
1 39 -4.30285 6.51729 1.70959
1 38 -3.89539 6.13666 0.862606
1 25 0.426546 5.94202 0.876995
1 24 1.26898 6.1146 0.338474
ITEM: TIMESTEP
15000
ITEM: NUMBER OF ATOMS
80
ITEM: BOX BOUNDS ff ff ff
-2.0000000000000000e+01 2.0000000000000000e+01
-2.0000000000000000e+01 2.0000000000000000e+01
-4.0000000000000000e+01 4.0000000000000000e+01
ITEM: ATOMS type id x y z
1 63 -4.80366 -2.5113 -1.18345
1 65 -3.53844 -1.7623 -2.13946
1 66 -2.54661 -1.75566 -2.19793
1 67 -1.55847 -1.83171 -2.0977
1 35 -1.87764 5.16305 -1.65992
1 27 0.535487 5.16238 -1.31634
1 29 -0.610929 5.84049 -2.11478
1 28 0.273404 6.0232 -1.71425
1 69 -1.55968 -2.51455 -0.706525
1 80 0.419783 -2.35677 -0.51934
1 62 -4.38852 -1.63113 -0.953686
1 64 -4.28004 -1.73311 -1.47549
1 68 -1.46982 -2.72532 -1.69721
1 51 -6.76049 0.194397 -0.509973
1 54 -4.12498 0.679554 -1.15615
1 49 -6.8158 1.2103 -0.760451
1 48 -6.75191 2.18736 -0.530568
1 22 1.8218 4.3439 -0.582781
1 13 3.99675 4.45887 -0.421866
1 36 -2.42896 4.60876 -1.05182
1 34 -2.23618 5.6251 -0.844792
1 31 -1.10899 5.70491 -0.351566
1 26 0.492386 6.00297 -0.793102
1 23 2.20231 4.92567 -1.31832
1 30 -0.760632 6.15195 -1.1786
1 71 -1.99224 -2.50211 0.79365
1 70 -1.73857 -1.88128 0.0496942
1 79 0.930738 -2.32891 0.341723
1 61 -4.84555 -1.43049 -0.0790575
1 60 -3.91492 -1.61289 -0.416365
1 59 -3.9981 -1.0633 0.403182
1 56 -3.01904 0.0175044 0.105604
1 52 -5.78655 0.093711 -0.341883
1 53 -5.09586 0.470032 -0.948197
1 55 -3.31621 0.690007 -0.580728
1 4 5.17401 0.307184 0.551444
1 50 -6.4252 0.88756 0.112484
1 47 -5.95762 2.19784 0.0719381
1 46 -6.25257 3.13883 0.285613
1 44 -5.04425 3.63541 -0.407864
1 11 5.41561 3.79589 0.588858
1 45 -6.00026 3.91172 -0.303153
1 43 -4.18305 4.13347 -0.359792
1 21 1.00792 4.14279 -0.0404664
1 14 4.15077 4.94317 0.440233
1 12 4.87596 4.42676 0.0318631
1 42 -4.29287 4.54484 0.537351
1 37 -2.97286 4.75605 -0.22174
1 33 -2.11146 5.32323 0.0830572
1 25 1.01947 5.69381 0.00125755
1 24 1.70394 5.5545 -0.729308
1 32 -1.51965 6.01908 0.50826
1 72 -1.80568 -3.49367 0.67509
1 73 -0.90122 -3.15728 0.431572
1 75 -0.291414 -2.91491 2.01765
1 74 -0.664601 -2.5344 1.18288
1 78 0.820512 -3.01581 1.06703
1 58 -3.19148 -1.66267 0.496705
1 57 -2.65141 -0.914938 0.125326
1 3 4.46448 0.328455 1.26409
1 5 5.66358 1.17155 0.468605
1 8 5.75068 1.39076 0.432306
1 6 6.41882 1.82202 0.362611
1 9 5.69554 2.33428 0.748798
1 7 6.09065 1.79976 1.30302
1 19 1.66979 3.60565 1.13228
1 10 4.92174 2.95185 0.743886
1 20 1.00759 3.28301 0.466784
1 18 2.45843 4.2102 1.14663
1 15 3.78244 4.04088 0.685789
1 41 -4.59001 4.93262 1.41449
1 39 -4.13304 5.06505 1.074
1 38 -3.35184 5.30205 0.518405
1 16 3.46989 4.95366 0.433697
1 17 2.57498 5.15453 0.825485
1 76 0.136962 -2.55111 2.84002
1 77 0.660797 -2.66695 1.99378
1 2 3.95175 -0.168009 1.97687
1 40 -3.85453 4.33916 1.70606
1 1 4.78446 -0.125333 2.53488
ITEM: TIMESTEP
20000
ITEM: NUMBER OF ATOMS
80
ITEM: BOX BOUNDS ff ff ff
-2.0000000000000000e+01 2.0000000000000000e+01
-2.0000000000000000e+01 2.0000000000000000e+01
-4.0000000000000000e+01 4.0000000000000000e+01
ITEM: ATOMS type id x y z
1 65 -3.79261 -2.00111 -1.78854
1 66 -3.08384 -1.51738 -2.2932
1 63 -3.72242 -2.71097 -1.41919
1 64 -4.33754 -2.05662 -0.956509
1 68 -1.4372 -1.92576 -2.11079
1 67 -2.174 -1.5917 -2.71313
1 28 -0.0196255 5.25141 -1.85281
1 62 -3.4475 -1.74916 -1.26934
1 69 -2.20571 -2.00003 -1.48619
1 53 -4.19881 -0.412948 -1.57388
1 51 -5.68217 0.844287 -1.14343
1 52 -4.91388 0.294882 -1.48991
1 54 -4.22943 0.0259057 -0.671423
1 44 -5.30177 4.6583 0.288888
1 36 -2.3102 4.27229 -1.57241
1 35 -2.41875 4.87007 -0.785506
1 27 0.304275 4.3759 -1.50236
1 23 1.35653 3.96121 -1.22294
1 24 1.69611 4.73756 -0.680989
1 22 2.17325 4.50938 -0.988947
1 34 -1.89442 5.1327 0.0392056
1 29 -0.551078 5.71934 -1.15015
1 61 -3.81887 -1.97836 -0.370806
1 70 -1.51686 -2.30781 -0.827439
1 80 0.732667 -1.65966 -0.456021
1 79 0.94063 -2.03839 0.438376
1 60 -3.79783 -1.67564 0.591007
1 50 -5.72319 0.160587 -0.41311
1 55 -3.93142 -0.175958 0.262877
1 56 -3.26289 -0.273872 1.00844
1 49 -5.75332 1.15326 -0.410354
1 48 -5.25066 1.96903 -0.112302
1 9 4.72011 2.30398 -0.56054
1 45 -5.98766 4.10198 -0.206163
1 47 -4.62304 2.7134 -0.341274
1 42 -4.31057 4.2579 0.179343
1 20 1.53453 3.34967 0.148444
1 11 4.58875 3.23528 0.393432
1 12 3.62444 3.15032 0.0875533
1 10 5.2601 3.10879 -0.34134
1 8 5.5739 2.6957 -0.262886
1 43 -4.96096 4.23514 -0.559405
1 38 -2.97831 4.65528 0.177246
1 37 -2.83908 4.22298 -0.710613
1 26 0.117361 3.93385 -0.621996
1 21 2.24853 3.63745 -0.475386
1 13 3.66019 4.08948 -0.262361
1 32 -1.60962 4.71356 0.941586
1 31 -1.20529 5.22754 0.167839
1 33 -1.66768 5.7129 0.817975
1 30 -0.351579 5.61241 -0.176343
1 25 0.757154 4.66311 -0.364869
1 14 3.19619 4.80826 0.286449
1 71 -1.64281 -2.26409 0.166105
1 73 -0.124878 -1.50517 0.968837
1 72 -1.00672 -1.58464 0.514733
1 59 -4.01631 -0.957167 1.24056
1 58 -3.52495 -1.8198 1.0811
1 78 0.741394 -2.42632 1.34858
1 3 4.44603 0.045626 0.980885
1 57 -3.00863 -1.09363 1.50978
1 2 3.66258 0.266197 1.54772
1 4 5.37325 0.105694 1.34825
1 1 4.16325 0.870921 0.895378
1 5 5.27004 1.04968 1.02053
1 6 5.38735 2.03562 1.11386
1 46 -5.37898 3.31479 -0.0380523
1 41 -4.4238 3.58185 0.930803
1 19 1.7667 2.90033 1.00086
1 7 6.06434 2.5706 0.608577
1 40 -3.63284 3.83748 1.47981
1 16 2.95622 3.94702 0.831098
1 15 3.89434 4.27277 0.746946
1 39 -3.77081 4.5393 0.769257
1 76 0.998762 -2.94107 1.78499
1 74 -0.239964 -2.13444 1.73693
1 75 0.465153 -2.37842 2.39924
1 77 0.0422058 -2.73579 1.98539
1 18 2.21718 2.70721 1.88331
1 17 2.67625 3.58673 1.73103
ITEM: TIMESTEP
25000
ITEM: NUMBER OF ATOMS
80
ITEM: BOX BOUNDS ff ff ff
-2.0000000000000000e+01 2.0000000000000000e+01
-2.0000000000000000e+01 2.0000000000000000e+01
-4.0000000000000000e+01 4.0000000000000000e+01
ITEM: ATOMS type id x y z
1 68 -1.86412 -1.25318 -2.94054
1 64 -3.66018 -2.33762 -1.18912
1 65 -4.00165 -1.51797 -1.64775
1 66 -3.14852 -1.86313 -2.06325
1 69 -1.46259 -1.33539 -2.0346
1 67 -2.83925 -1.1536 -2.72596
1 27 -0.0862822 4.65138 -1.50133
1 63 -3.76886 -1.39176 -1.43365
1 70 -1.53091 -1.24624 -1.03364
1 51 -4.89677 1.18673 -0.974735
1 49 -5.19227 0.625183 0.30728
1 52 -4.21489 1.00088 -1.68982
1 53 -4.18028 1.10594 -0.694951
1 11 3.9372 2.07549 -0.85447
1 9 4.4199 1.91585 -1.08063
1 42 -4.04505 2.69711 -1.11056
1 41 -3.13372 2.62214 -0.714762
1 38 -2.8169 3.79312 -0.685882
1 22 0.96512 2.97532 -0.949882
1 10 4.67258 2.40914 -0.261049
1 36 -2.09887 4.70704 -1.17136
1 37 -2.48375 3.8989 -1.62282
1 35 -2.68894 5.25793 -0.572606
1 28 -0.938909 4.77888 -0.980496
1 29 -0.916432 5.5846 -0.393168
1 26 0.505552 5.35209 -1.91943
1 25 1.20108 4.99787 -1.30557
1 60 -3.13981 -2.51157 0.45542
1 61 -3.63306 -1.70587 0.0908996
1 71 -1.37147 -1.87268 -0.23894
1 72 -1.08428 -1.96716 0.712131
1 80 0.224767 -1.2057 0.417147
1 62 -3.31498 -1.05667 -0.602633
1 50 -5.15639 0.284619 -0.62155
1 54 -3.62446 0.658355 0.00178719
1 48 -5.16707 1.45737 0.842672
1 47 -4.46795 1.77985 0.183712
1 40 -3.21096 2.53533 0.28422
1 20 1.87198 2.24502 -0.0505069
1 12 3.6176 2.44927 0.010973
1 8 4.57697 2.26656 -0.167041
1 46 -4.189 2.75221 0.15895
1 43 -3.83043 3.50518 -0.575164
1 39 -2.49944 2.97122 -0.243578
1 21 1.28943 3.07215 -0.00492457
1 23 1.36984 3.5597 -0.246438
1 19 2.33978 3.08603 0.156656
1 13 3.74756 3.29925 -0.499957
1 34 -1.94657 4.58674 -0.416509
1 24 1.69475 4.41898 -0.632041
1 14 4.07784 3.59035 0.397617
1 33 -1.47437 3.87311 0.103678
1 30 -1.5313 5.79705 0.360142
1 77 0.8117 -2.4282 1.6065
1 59 -2.4202 -1.83971 0.677923
1 58 -2.10447 -2.41122 1.43644
1 73 -0.823079 -1.25943 1.36122
1 78 1.55441 -1.91031 1.19573
1 57 -2.36935 -1.49655 1.18312
1 79 1.20794 -1.18149 0.613129
1 55 -3.34993 0.0440902 0.763997
1 56 -2.61672 -0.527501 1.14857
1 7 4.18458 1.41438 0.2098
1 6 4.27871 0.98769 1.11597
1 45 -4.2733 3.34374 0.96176
1 44 -3.69865 3.89358 0.342583
1 32 -1.47665 4.24105 1.02022
1 18 2.15459 3.13625 1.11189
1 16 2.51259 3.46918 1.33929
1 15 3.11725 3.7229 0.586479
1 31 -1.37903 5.21312 1.17473
1 76 1.39243 -1.60473 1.56273
1 74 0.105382 -1.01677 1.60584
1 75 1.04512 -0.673865 1.57968
1 3 3.03221 0.0322274 2.44911
1 2 2.41581 0.726122 2.07116
1 4 3.91385 0.49161 2.37346
1 1 2.48271 1.1706 1.1863
1 5 4.74809 0.889922 1.98378
1 17 2.3553 2.71955 1.97694
ITEM: TIMESTEP
30000
ITEM: NUMBER OF ATOMS
80
ITEM: BOX BOUNDS ff ff ff
-2.0000000000000000e+01 2.0000000000000000e+01
-2.0000000000000000e+01 2.0000000000000000e+01
-4.0000000000000000e+01 4.0000000000000000e+01
ITEM: ATOMS type id x y z
1 64 -3.39275 -1.73871 -1.68218
1 68 -2.57828 -2.37474 -1.70116
1 69 -1.59566 -2.21413 -1.82352
1 67 -1.92842 -1.90791 -2.32259
1 65 -2.62298 -1.23276 -2.07746
1 66 -1.74354 -0.91244 -2.38318
1 52 -3.79832 -0.467761 -2.01154
1 38 -2.08328 2.92045 -2.48609
1 37 -2.0477 3.92921 -2.52783
1 36 -2.5485 4.42263 -1.81767
1 26 -0.471546 4.26343 -1.37004
1 63 -3.83528 -2.47554 -1.17078
1 54 -2.88352 -0.674127 -0.801861
1 70 -1.7984 -1.44891 -1.22919
1 50 -4.06967 0.77378 -0.753681
1 51 -3.54356 0.343899 -1.48115
1 53 -3.29174 0.0524511 -1.34169
1 39 -1.88665 1.99841 -2.15262
1 40 -2.00535 2.35795 -1.22951
1 10 3.91512 2.55247 -0.978649
1 9 4.79576 2.1031 -1.09471
1 41 -2.61209 3.11323 -1.00232
1 42 -3.61027 3.07701 -1.13995
1 35 -2.41527 4.38648 -0.832538
1 27 -1.04914 3.59338 -0.900885
1 25 0.388794 4.36078 -0.855793
1 29 -0.812657 5.52654 -0.742144
1 62 -3.78918 -2.26217 -0.183472
1 61 -3.12267 -2.89875 0.170134
1 55 -2.46624 -0.671474 0.119784
1 56 -2.66422 -1.33486 0.841268
1 71 -1.27092 -1.14964 -0.422195
1 72 -0.801311 -1.15779 0.464501
1 79 0.241065 -0.671576 0.036684
1 80 1.09181 -1.04825 -0.330858
1 49 -4.70118 1.19206 -0.105853
1 20 1.53195 2.28535 0.559076
1 12 2.87984 1.60114 -0.593353
1 11 3.51546 2.20307 -0.140999
1 8 5.01287 2.1063 -0.101341
1 43 -3.45191 3.41053 -0.203785
1 44 -3.31598 3.39324 0.784238
1 34 -2.27478 4.6536 0.119677
1 22 0.0693901 3.37101 0.52126
1 21 0.734969 2.71096 0.167131
1 13 2.97727 2.56492 -0.321144
1 14 3.18074 3.49812 -0.0124558
1 28 -0.818353 4.56135 -0.985331
1 24 0.411374 4.07513 0.108144
1 30 -1.42409 5.99013 -0.087437
1 60 -2.48674 -2.563 0.84111
1 77 0.440697 -2.34554 0.886123
1 57 -2.43915 -1.84262 1.66442
1 73 -0.477032 -0.499146 1.15628
1 78 0.562167 -1.38559 0.674048
1 75 1.20469 -1.37055 1.74087
1 74 0.399819 -0.829769 1.47311
1 7 4.87342 1.64705 0.77682
1 48 -4.78826 2.08098 0.340229
1 47 -4.0072 2.5971 0.696011
1 19 2.48977 2.11942 0.763005
1 16 2.51552 2.56485 1.25652
1 17 3.16918 2.21695 1.93583
1 46 -3.79134 3.17748 1.4678
1 15 2.44823 3.31759 0.610269
1 18 3.08509 2.82824 1.13928
1 45 -3.33817 4.05612 1.55977
1 33 -1.86699 4.12014 0.87064
1 32 -2.14096 4.90559 1.42441
1 23 0.696825 3.97258 1.04916
1 31 -1.75947 5.53758 0.736729
1 59 -2.16325 -2.71326 1.76996
1 58 -1.74559 -2.02802 2.36587
1 76 0.252717 -1.66414 1.60893
1 1 1.25388 1.74674 1.43591
1 2 2.05291 1.4406 1.98272
1 3 2.91125 1.1994 2.44782
1 4 3.55194 0.573276 2.02228
1 5 4.426 0.95415 2.33149
1 6 5.06245 1.48815 1.74997
ITEM: TIMESTEP
35000
ITEM: NUMBER OF ATOMS
80
ITEM: BOX BOUNDS ff ff ff
-2.0000000000000000e+01 2.0000000000000000e+01
-2.0000000000000000e+01 2.0000000000000000e+01
-4.0000000000000000e+01 4.0000000000000000e+01
ITEM: ATOMS type id x y z
1 65 -3.09458 -1.0925 -1.81255
1 67 -2.71226 -1.30806 -1.98211
1 66 -2.75956 -0.520983 -2.56299
1 38 -1.91632 3.07542 -2.00787
1 37 -2.07123 4.03586 -2.29648
1 36 -1.42262 3.92239 -1.53
1 69 -1.62253 -2.28112 -0.796861
1 68 -2.25645 -2.07564 -1.53757
1 80 -0.0779433 -1.33318 -0.686743
1 63 -3.64182 -1.20496 -0.411599
1 64 -2.84079 -0.840358 -0.885176
1 52 -2.42623 0.346933 -0.721
1 51 -2.7601 1.28701 -0.533466
1 39 -1.59336 2.4104 -1.32978
1 40 -2.05207 2.31788 -0.450092
1 27 -0.254048 3.28687 -1.39316
1 22 0.676437 2.65401 -0.75162
1 35 -1.7392 3.46328 -0.706448
1 29 -1.02492 4.67733 -0.333555
1 28 -0.391051 4.00106 -0.712959
1 26 -0.0522758 3.96814 -2.08657
1 25 0.282477 4.49278 -1.30778
1 24 1.03559 4.23091 -0.707142
1 13 2.70177 3.66884 -0.470191
1 70 -1.62012 -3.26128 -0.555234
1 61 -3.3874 -2.55435 0.402896
1 71 -1.30019 -2.4124 -0.111494
1 77 0.375035 -2.27544 0.557245
1 78 1.09999 -1.98704 -0.0702515
1 62 -3.10216 -2.05486 -0.426057
1 55 -2.36103 -0.0969514 0.279586
1 79 0.339311 -1.40621 0.204818
1 54 -3.16862 0.0259874 -0.268093
1 50 -3.44575 1.63291 0.110599
1 53 -2.71773 0.829964 0.116417
1 9 2.88707 0.929437 -0.655394
1 8 3.7043 1.07346 -0.0921126
1 48 -3.76887 2.1776 -0.0564397
1 21 1.36486 2.38526 -0.072234
1 10 3.54638 1.63465 -0.438119
1 42 -3.06485 3.81175 0.0140931
1 41 -2.87607 2.90282 -0.364568
1 23 1.45254 3.30696 -0.744082
1 12 3.57166 3.34043 -0.13016
1 14 2.67525 4.37103 0.219377
1 11 4.00023 2.42381 -0.0369842
1 43 -3.78143 3.41915 -0.567733
1 34 -2.04243 4.29279 -0.249939
1 30 -0.335277 4.27495 0.262328
1 60 -2.62012 -3.13933 0.668519
1 59 -3.28761 -2.70475 1.26408
1 58 -2.77309 -1.96331 1.68226
1 72 -1.98972 -1.97672 0.45953
1 76 1.12345 -1.99073 1.15577
1 56 -1.87083 -0.618685 0.993213
1 73 -1.35114 -1.69776 1.1521
1 3 3.05618 0.113174 0.830652
1 4 3.90055 0.0940215 1.36708
1 49 -4.33757 1.62808 0.58041
1 1 1.85071 0.542955 0.283857
1 2 2.60799 1.0195 0.746635
1 5 4.79221 0.24154 0.948868
1 7 4.35723 1.26947 0.653421
1 47 -2.95815 2.14335 0.540371
1 20 1.25948 2.35266 0.91133
1 19 2.22855 2.23241 1.11863
1 16 2.41789 2.69517 0.894146
1 6 4.97239 1.07947 1.42931
1 44 -4.33696 3.41653 0.27315
1 46 -3.35006 2.99678 0.819819
1 15 2.90813 3.53191 0.705542
1 33 -1.66302 4.41397 0.666733
1 32 -1.6728 4.45 1.65158
1 31 -1.08398 4.56911 0.870775
1 57 -2.40491 -1.03802 1.73759
1 74 -0.547214 -1.18604 1.45408
1 75 0.442809 -1.34123 1.50421
1 18 2.94173 1.67275 1.53459
1 45 -4.17124 3.37291 1.2558
1 17 2.23899 2.32813 1.80151
ITEM: TIMESTEP
40000
ITEM: NUMBER OF ATOMS
80
ITEM: BOX BOUNDS ff ff ff
-2.0000000000000000e+01 2.0000000000000000e+01
-2.0000000000000000e+01 2.0000000000000000e+01
-4.0000000000000000e+01 4.0000000000000000e+01
ITEM: ATOMS type id x y z
1 68 -1.68804 -1.83313 -2.96709
1 69 -1.96928 -1.84284 -2.00848
1 67 -1.97774 -1.07552 -2.38443
1 66 -2.39575 -0.170657 -2.24034
1 38 -1.89654 3.4526 -1.67532
1 25 0.390705 4.1848 -2.21052
1 27 0.183827 4.07225 -1.61609
1 26 -0.231332 4.92583 -1.93404
1 70 -2.01335 -1.7069 -1.01884
1 80 -0.23285 -2.36708 -1.0401
1 79 0.618078 -2.05032 -1.47244
1 78 0.313263 -2.76557 -0.856559
1 64 -2.78051 -1.11706 -0.924259
1 65 -2.53705 -0.200682 -1.24825
1 51 -3.34941 0.801596 -0.786371
1 9 3.90491 1.27091 -0.322928
1 39 -1.83099 2.66164 -1.06887
1 22 2.0272 2.43152 -1.1842
1 41 -2.3559 2.76562 -0.198793
1 24 0.468794 3.66343 -1.36721
1 23 1.23847 3.03334 -1.22877
1 37 -2.2467 3.89574 -0.829791
1 28 -0.128658 4.51251 -0.764897
1 62 -2.59004 -2.65125 -0.449605
1 59 -2.31258 -2.80365 -0.103119
1 58 -1.78745 -2.71791 0.758699
1 63 -3.08127 -1.79729 -0.244367
1 60 -3.08115 -2.18203 -0.352581
1 77 0.312522 -2.42677 0.0711776
1 71 -1.32078 -1.76201 -0.29826
1 54 -2.41306 0.0582933 -0.192199
1 1 1.30179 -0.169497 -0.738206
1 2 1.52539 0.23891 0.133551
1 3 2.30514 0.5438 0.671219
1 50 -2.80611 1.47925 -0.291586
1 52 -2.97565 0.69256 0.123158
1 8 4.01249 1.57137 0.625907
1 48 -3.75792 1.69335 0.592658
1 40 -1.65018 2.05169 -0.308338
1 21 1.23481 2.49485 -0.585252
1 10 3.93562 2.11863 0.203189
1 44 -3.86681 3.07478 -0.658839
1 45 -3.55029 2.66565 0.190391
1 43 -3.50596 2.61715 0.140143
1 42 -2.94132 3.4321 0.266236
1 36 -1.53251 3.22886 -0.574728
1 35 -1.56837 3.25248 0.424171
1 13 2.91263 3.71482 1.28411
1 11 3.08371 2.52943 -0.0584364
1 14 2.02412 3.57655 0.842953
1 29 -0.24838 5.18675 -0.0247821
1 61 -2.93281 -2.72879 0.474666
1 57 -1.82361 -2.12954 1.58345
1 76 -0.286481 -2.2215 0.852603
1 55 -1.91187 -0.672472 0.273649
1 56 -2.07734 -1.34631 1.00429
1 72 -0.693758 -1.43753 0.421922
1 75 -0.837871 -1.75511 1.53722
1 73 -0.917115 -1.01011 1.30233
1 7 3.44246 0.746429 0.603925
1 4 3.2891 0.361391 0.795961
1 5 4.0461 -0.101042 0.345968
1 47 -2.93284 1.34979 1.05079
1 53 -2.1237 0.553495 0.618791
1 46 -3.03585 2.3504 0.975166
1 49 -2.79914 1.94106 0.576262
1 19 1.62322 2.09326 1.28422
1 34 -0.789826 2.98146 0.982753
1 33 -0.0429782 3.47175 0.572378
1 20 1.24657 2.15724 0.354893
1 15 1.46338 3.77081 1.64408
1 12 3.40415 3.2256 0.579509
1 30 -1.05121 5.11667 0.561835
1 32 -0.400882 4.17325 1.18857
1 74 -0.982134 -1.12121 2.30269
1 6 3.84534 0.146782 1.30742
1 18 1.54277 1.44219 2.03157
1 17 2.24651 2.14456 2.20711
1 16 1.93789 3.08682 2.20382
1 31 -0.988121 4.90015 1.5338
ITEM: TIMESTEP
45000
ITEM: NUMBER OF ATOMS
80
ITEM: BOX BOUNDS ff ff ff
-2.0000000000000000e+01 2.0000000000000000e+01
-2.0000000000000000e+01 2.0000000000000000e+01
-4.0000000000000000e+01 4.0000000000000000e+01
ITEM: ATOMS type id x y z
1 68 -2.499 -1.42075 -3.41199
1 67 -2.20816 -0.65505 -3.99874
1 66 -1.8643 0.0327678 -3.36558
1 69 -2.42616 -1.81389 -2.49821
1 70 -1.75446 -1.46319 -1.85425
1 65 -2.38002 -0.162248 -2.52127
1 26 -0.756673 4.45853 -1.32836
1 25 -0.410753 3.56609 -1.63673
1 78 0.51909 -3.1897 -0.283321
1 79 0.73206 -2.20639 -0.28516
1 63 -2.82527 -0.784691 -0.726483
1 71 -1.34963 -1.53249 -0.937805
1 64 -2.70835 -0.629581 -1.70603
1 52 -2.52425 0.285243 -0.915518
1 1 1.65269 0.483494 -0.717343
1 51 -3.04027 1.13116 -0.937648
1 39 -1.19936 2.25731 -0.569575
1 23 1.0187 2.29302 -1.18091
1 37 -2.0063 3.3074 -0.883044
1 38 -1.04855 3.13248 -1.03948
1 36 -1.08208 2.98857 -0.646663
1 24 0.432066 3.02141 -1.53646
1 27 -0.395843 4.04098 -0.495283
1 58 -1.77359 -3.07504 0.480789
1 59 -1.61346 -2.65172 -0.402137
1 77 0.541012 -2.59318 0.50921
1 60 -2.29394 -2.68386 0.335414
1 80 -0.00135708 -2.189 -0.964534
1 62 -2.58481 -1.23545 0.144673
1 53 -1.8433 -0.370529 -0.548876
1 72 -1.10231 -1.57471 0.0140571
1 7 3.76617 -0.207802 0.651348
1 73 -0.636927 -0.74598 0.304277
1 2 1.42189 -0.0217383 0.110826
1 8 3.66033 0.538192 -0.00292245
1 50 -3.76588 1.72258 -0.569257
1 20 1.15767 1.66296 0.461503
1 3 2.2559 0.44978 0.406645
1 9 3.87115 1.49091 0.246173
1 47 -3.43269 1.77553 0.261489
1 40 -2.10468 2.37371 -0.161154
1 41 -2.86676 2.71372 -0.706463
1 22 0.427463 1.54026 -0.908567
1 44 -3.42996 3.98004 0.0635199
1 43 -2.86183 3.2483 0.424721
1 35 -0.447963 3.07545 0.119927
1 13 3.60143 3.28911 0.934145
1 28 -0.493151 4.2818 0.480576
1 61 -2.86181 -1.98778 0.743618
1 57 -1.79952 -2.52351 1.29591
1 76 -0.0728653 -2.61891 1.31531
1 55 -2.21212 -1.08501 1.18338
1 56 -1.77873 -1.69073 1.8591
1 75 -0.00917364 -1.60589 1.36809
1 74 0.0999946 -0.68898 0.980777
1 54 -1.92412 -0.461082 0.455532
1 4 2.87363 -0.1584 0.894613
1 5 3.61785 0.364459 0.473106
1 6 4.51155 0.150717 0.073348
1 10 4.50906 1.4105 1.02146
1 49 -3.33149 1.58219 0.327302
1 48 -3.20138 1.97374 1.22779
1 46 -3.44803 2.64356 0.756645
1 42 -2.57069 2.32525 0.170688
1 21 0.945097 1.00568 -0.266875
1 19 1.34301 2.17985 1.29315
1 11 4.89981 2.10816 1.63658
1 45 -4.05503 3.43246 0.622603
1 33 -0.62917 2.83754 1.03032
1 32 0.011356 3.2485 1.66301
1 15 1.84881 3.54839 0.347781
1 16 1.39625 3.42396 1.23564
1 12 4.03908 2.59352 1.49594
1 34 -1.20958 3.52382 0.59459
1 31 -0.663159 3.97766 1.80002
1 14 2.79347 3.77469 0.584133
1 30 -1.3918 4.6418 1.83546
1 29 -0.67098 4.95342 1.19112
1 18 0.509687 2.20087 1.84829
1 17 1.29546 2.79288 2.00237
ITEM: TIMESTEP
50000
ITEM: NUMBER OF ATOMS
80
ITEM: BOX BOUNDS ff ff ff
-2.0000000000000000e+01 2.0000000000000000e+01
-2.0000000000000000e+01 2.0000000000000000e+01
-4.0000000000000000e+01 4.0000000000000000e+01
ITEM: ATOMS type id x y z
1 68 -1.46338 -0.391083 -2.60148
1 66 -1.09667 -0.710851 -2.67229
1 67 -1.28591 -0.347825 -3.58418
1 69 -2.16393 -1.10631 -2.67561
1 70 -2.77985 -1.60726 -2.06941
1 71 -1.921 -1.50792 -1.55315
1 65 -1.0516 0.2068 -2.28367
1 24 1.19755 2.66387 -2.05725
1 80 -0.4472 -3.21607 -1.59088
1 63 -2.20014 -0.456923 -1.07532
1 72 -1.13645 -1.31562 -0.972922
1 64 -1.32047 -0.0408734 -1.35228
1 51 -3.13146 0.506735 -0.919037
1 50 -2.80706 1.4258 -1.16694
1 1 0.903894 1.02979 -0.367725
1 40 -1.20044 2.02154 -0.451928
1 37 -1.34645 3.14847 -0.709602
1 38 -2.12835 2.82275 -1.2526
1 39 -1.1604 2.88007 -0.981833
1 23 0.84782 2.86289 -1.13371
1 25 0.732256 2.91127 -1.21003
1 26 0.755666 3.71388 -0.612311
1 58 -1.537 -3.39339 0.629938
1 59 -2.09134 -3.51955 -0.188335
1 78 -0.332554 -3.01718 0.170231
1 79 -0.78541 -2.87746 -0.708354
1 61 -2.11446 -1.86047 -0.591047
1 60 -2.00596 -2.57153 0.107754
1 73 -1.24814 -1.14658 0.014409
1 62 -2.7999 -1.14744 -0.696666
1 7 3.02973 -0.301284 -0.0975447
1 52 -2.99656 0.023713 -0.0663418
1 53 -2.36294 -0.256605 0.651366
1 54 -1.42447 -0.08395 0.333686
1 3 2.33593 0.208861 0.673864
1 8 4.0327 -0.363565 -0.0341227
1 9 4.91192 -0.23593 0.431882
1 49 -2.45013 1.33186 -0.238066
1 48 -3.0893 1.37522 0.539091
1 2 1.61447 0.720527 0.263247
1 47 -4.00459 1.74242 0.534187
1 41 -2.15586 2.32476 -0.500513
1 36 -0.625795 3.39394 -0.0501178
1 21 0.286946 1.82931 0.467839
1 22 0.628679 2.45539 -0.246685
1 43 -2.93049 3.49003 0.133966
1 44 -3.84131 3.186 -0.132024
1 42 -2.12692 2.94161 0.286778
1 16 1.47994 3.01327 0.978803
1 45 -4.61706 3.57271 0.370965
1 27 0.482921 4.62127 -0.319762
1 28 0.728596 5.51308 0.0239642
1 77 -0.265059 -2.59164 1.06054
1 57 -1.38517 -2.46228 0.992375
1 76 -0.0163553 -2.02529 1.85185
1 56 -1.68087 -1.52637 1.07368
1 74 -0.511899 -1.28402 0.684841
1 5 3.64397 -1.08843 0.938124
1 6 3.69773 -0.153285 0.63564
1 55 -1.79824 -0.541682 1.12925
1 4 2.75048 -0.690111 0.733618
1 11 3.97552 1.1419 1.55585
1 10 4.49113 0.501915 0.970413
1 20 0.319263 2.26627 1.35722
1 17 1.22879 2.07794 0.694771
1 18 0.943122 1.77546 1.59891
1 46 -4.18652 2.67848 0.214137
1 35 -0.413981 2.71053 0.666162
1 15 2.17494 3.03089 0.271503
1 14 2.12833 3.07663 1.26193
1 30 -0.655455 5.20917 1.14003
1 33 0.00834482 3.33103 1.1815
1 29 -0.230463 5.51771 0.287466
1 75 -0.451541 -1.14767 1.66133
1 19 0.0760688 1.29934 1.42999
1 13 2.34604 2.23667 1.76866
1 12 3.18543 1.75179 1.49831
1 34 -0.917333 3.08516 1.4513
1 32 -0.151986 3.63326 2.12602