ITEM: TIMESTEP
0
ITEM: NUMBER OF ATOMS
80
ITEM: BOX BOUNDS ff ff ff
-2.0000000000000000e+01 2.0000000000000000e+01
-2.0000000000000000e+01 2.0000000000000000e+01
-4.0000000000000000e+01 4.0000000000000000e+01
ITEM: ATOMS type id x y z
1 80 -0.47803 -4.085 -0.596936
1 68 -3.41634 -3.2224 -0.611913
1 69 -3.16955 -3.35875 -0.648425
1 73 -2.1778 -3.77099 -0.568829
1 61 -5.02787 -1.82941 -0.957158
1 62 -4.81868 -2.07798 -0.716046
1 8 6.20031 2.67447 -0.837081
1 10 6.01891 3.47489 -0.955271
1 45 -5.88504 3.87129 -0.762589
1 42 -5.31235 5.01265 -0.640086
1 14 5.31272 5.01207 -0.589197
1 28 0.000365982 7.9 -0.815824
1 26 0.915977 7.83377 -0.881388
1 21 3.06772 7.1111 -0.656768
1 74 -1.93131 -3.84435 -0.248517
1 75 -1.68601 -3.90724 0.055985
1 76 -1.44201 -3.96031 -0.301562
1 77 -1.19933 -4.00414 0.528027
1 78 -0.957883 -4.03925 0.220752
1 79 -0.717522 -4.06609 0.47652
1 65 -4.14107 -2.72297 -0.228425
1 67 -3.66117 -3.07138 -0.34613
1 70 -2.92166 -3.48107 -0.317396
1 71 -2.67337 -3.59006 0.364029
1 72 -2.42527 -3.68646 -0.0118263
1 64 -4.37386 -2.52462 -0.393429
1 59 -5.41222 -1.28215 -0.253526
1 60 -5.22624 -1.56406 -0.428295
1 55 -6.00018 0.000555938 0.19117
1 56 -5.87977 -0.341901 -0.088372
1 2 6.10013 0.355282 -0.0717076
1 51 -6.26466 1.48532 -0.359713
1 52 -6.23383 1.09976 -0.0922737
1 53 -6.17862 0.722736 -0.111947
1 3 6.17851 0.722143 -0.0629778
1 4 6.23376 1.09915 0.0307284
1 5 6.26463 1.4847 0.259797
1 48 -6.20022 2.6751 -0.353784
1 49 -6.24875 2.27494 0.205573
1 50 -6.26996 1.87768 -0.395057
1 6 6.26997 1.87705 -0.0348432
1 7 6.24881 2.27431 -0.0153736
1 46 -6.01872 3.47553 0.384527
1 47 -6.12369 3.07604 0.272497
1 9 6.12383 3.0754 0.494996
1 43 -5.53158 4.64223 0.470128
1 11 5.88528 3.87066 0.0514697
1 12 5.72289 4.26036 -0.100827
1 13 5.53191 4.64163 -0.0799878
1 41 -5.06554 5.36989 -0.0145083
1 40 -4.79196 5.71162 0.482214
1 15 5.06595 5.36933 -0.377146
1 37 -3.82234 6.62144 0.449381
1 38 -4.16899 6.33952 -0.384462
1 39 -4.49269 6.03555 0.203044
1 36 -3.45442 6.87935 -0.128019
1 20 3.45502 6.87896 -0.453413
1 19 3.82291 6.62101 -0.0358324
1 35 -3.06709 7.11145 -0.15525
1 33 -2.24245 7.4918 0.495494
1 34 -2.66237 7.31608 0.0564417
1 30 -0.915254 7.83388 -0.0755936
1 27 0.459509 7.8834 -0.218347
1 29 -0.458779 7.88345 0.217407
1 25 1.36713 7.75148 0.4468
1 24 1.81035 7.63713 0.494368
1 66 -3.90311 -2.90508 0.804348
1 63 -4.60019 -2.30969 0.664595
1 57 -5.74059 -0.67042 0.862604
1 58 -5.5842 -0.984083 0.546904
1 54 -6.10028 0.355857 0.65023
1 1 6 0 0.990403
1 44 -5.72261 4.26098 0.962331
1 16 4.79242 5.71109 0.614466
1 17 4.49319 6.03505 0.658247
1 18 4.16953 6.33906 0.945315
1 32 -1.80965 7.63734 0.832931
1 31 -1.36641 7.75164 0.673984
1 22 2.66302 7.31578 0.609796
1 23 2.24313 7.49155 0.978883
ITEM: TIMESTEP
5000
ITEM: NUMBER OF ATOMS
80
ITEM: BOX BOUNDS ff ff ff
-2.0000000000000000e+01 2.0000000000000000e+01
-2.0000000000000000e+01 2.0000000000000000e+01
-4.0000000000000000e+01 4.0000000000000000e+01
ITEM: ATOMS type id x y z
1 80 -0.43385 -4.38287 -1.62377
1 70 -1.78858 -4.02669 -1.09269
1 71 -1.14282 -3.38397 -0.664869
1 79 0.0261053 -4.49429 -0.741204
1 63 -4.87387 -1.89634 -1.23102
1 64 -4.71769 -2.8253 -0.928749
1 62 -5.81457 -1.53344 -1.26208
1 61 -4.8826 -1.71272 -0.967267
1 60 -5.61551 -1.26837 -1.48001
1 53 -5.61621 0.270299 -0.997348
1 1 4.99714 -0.759001 -0.889133
1 7 5.36534 2.21115 -0.736257
1 15 4.01395 4.99282 -0.406023
1 23 1.59676 6.0337 -1.36755
1 27 0.128233 6.34712 -0.344319
1 24 1.06651 6.49666 -0.666187
1 78 0.553716 -5.06503 -0.111438
1 69 -2.20292 -3.46012 -0.410076
1 72 -1.06535 -3.90102 0.179237
1 74 -1.18731 -3.88627 0.0422826
1 65 -4.82634 -2.75829 0.0604915
1 66 -4.45612 -2.9577 0.977458
1 68 -2.98171 -2.83211 -0.298611
1 73 -0.907731 -2.92336 0.0606205
1 59 -5.88989 -0.889267 -0.59733
1 58 -5.50739 -0.787277 0.323564
1 57 -4.6222 -1.08036 -0.051135
1 2 4.35885 -0.179095 -0.36789
1 55 -5.66482 -0.151452 0.516455
1 52 -5.51264 0.723514 -0.101895
1 54 -5.49721 0.630263 -0.0668671
1 56 -4.74972 -0.103388 0.135558
1 3 4.89476 0.337287 0.311925
1 4 5.49046 1.05458 0.668022
1 6 5.60192 2.24022 0.239042
1 8 6.27056 2.53956 -0.492841
1 9 7.03256 2.23551 0.0610371
1 46 -5.91744 3.15845 0.700219
1 48 -5.96501 2.929 0.683118
1 11 6.13891 3.96925 0.0931151
1 10 6.38895 2.99144 0.204321
1 45 -6.55601 3.6024 0.0504069
1 44 -6.14958 4.47193 0.333902
1 16 4.63168 4.98403 0.380533
1 12 5.57887 4.7666 -0.0403973
1 43 -5.70151 5.08269 -0.312781
1 42 -4.83094 4.95352 0.15258
1 21 2.76349 5.5805 -0.306675
1 14 4.84528 5.54309 -0.26957
1 17 3.99065 5.75286 0.284973
1 13 4.88424 5.08898 0.628296
1 35 -2.5933 6.58312 0.824129
1 34 -2.29657 6.57091 -0.126587
1 33 -1.28541 6.56349 -0.133612
1 25 2.05613 6.43773 -0.522501
1 22 2.37655 6.34746 -0.832592
1 20 2.88594 6.30781 0.368682
1 38 -3.54043 6.99318 2.03829e-05
1 29 -0.258079 8.1148 0.148541
1 28 -0.342589 7.13464 0.0612511
1 26 1.08232 6.63034 -0.511015
1 37 -3.40792 7.94428 0.22649
1 30 -1.16818 7.70907 0.173208
1 75 -0.78737 -4.47668 0.754425
1 77 -0.115645 -4.50019 0.383951
1 67 -3.57206 -2.93999 0.520062
1 76 -0.23051 -3.66081 0.92198
1 51 -6.28158 0.699474 0.528428
1 5 6.2554 1.67409 0.72562
1 50 -6.61168 1.51125 0.987568
1 49 -5.74451 2.02165 0.965812
1 47 -6.80135 3.30599 0.265477
1 40 -4.76214 5.8291 0.898548
1 41 -4.1656 5.0146 0.889243
1 39 -4.37494 6.58747 0.396805
1 32 -1.75787 6.98192 0.661089
1 19 3.4407 6.01039 1.13339
1 18 4.44234 6.0532 1.14167
1 36 -3.2021 7.36154 1.00731
1 31 -1.11619 7.58351 1.15178
ITEM: TIMESTEP
10000
ITEM: NUMBER OF ATOMS
80
ITEM: BOX BOUNDS ff ff ff
-2.0000000000000000e+01 2.0000000000000000e+01
-2.0000000000000000e+01 2.0000000000000000e+01
-4.0000000000000000e+01 4.0000000000000000e+01
ITEM: ATOMS type id x y z
1 80 -0.0178461 -3.73285 -2.05482
1 79 0.268816 -3.06752 -1.37105
1 62 -4.91815 -0.947348 -1.54612
1 77 0.175831 -3.42111 -0.482719
1 68 -2.52988 -3.4783 -0.789455
1 69 -2.86456 -3.43237 -1.7351
1 70 -2.18078 -2.94381 -1.16846
1 78 0.875589 -2.72445 -0.653418
1 64 -5.10995 -2.80765 -0.953048
1 63 -4.84501 -1.88772 -1.22646
1 61 -4.41913 -1.79742 -1.37927
1 60 -5.29136 -1.66027 -0.91353
1 54 -4.61197 -0.025739 -1.29984
1 53 -3.8804 -0.0497185 -0.624087
1 52 -3.69825 0.942044 -0.674323
1 8 4.79135 2.30158 -0.679694
1 13 5.55111 3.85553 -1.30786
1 43 -4.45299 3.42625 -0.846282
1 14 5.27907 4.27701 -0.449074
1 15 4.32646 4.44863 -0.230658
1 71 -1.72943 -2.7733 -0.294907
1 73 -0.679609 -2.6657 -0.0693013
1 76 -0.0205769 -2.72396 0.231728
1 65 -4.27684 -2.75505 -0.413041
1 66 -3.61788 -2.08546 -0.0766938
1 67 -3.33514 -2.9831 -0.424294
1 72 -1.18156 -2.03055 -0.650504
1 59 -5.18388 -1.18068 -0.0346421
1 58 -4.93852 -0.832917 0.87299
1 57 -4.354 -1.61777 0.678614
1 56 -4.35356 -0.642227 0.512174
1 55 -4.43396 -0.107559 -0.33017
1 1 4.72756 -0.299818 0.120259
1 2 4.47227 0.671028 0.0293201
1 51 -4.66925 1.09416 -0.806857
1 5 4.61374 0.847031 0.614549
1 6 5.57981 0.777447 0.318917
1 46 -5.59096 2.37752 0.384888
1 9 5.18217 2.38863 0.237899
1 7 5.26237 1.57453 -0.197414
1 47 -6.55642 2.50377 0.145311
1 10 5.66668 2.93198 -0.452381
1 11 5.93798 3.65339 0.180116
1 12 6.16485 3.31118 -0.728918
1 42 -4.24668 4.22765 -0.265357
1 44 -4.90841 2.99562 -0.0617471
1 16 3.72612 5.24789 -0.331322
1 40 -4.79312 5.6497 0.25148
1 24 0.398342 4.98864 0.435483
1 25 0.329064 5.40272 -0.465665
1 17 3.0918 5.94472 0.0407498
1 18 2.75549 5.03444 0.265877
1 39 -4.89769 6.49354 0.768291
1 37 -2.9512 6.23629 0.65577
1 27 -0.429586 6.56548 -0.434183
1 26 0.49802 6.3348 -0.138808
1 23 0.548846 5.97461 0.371488
1 29 -0.81318 7.0258 -0.0571392
1 28 -0.232903 7.50039 -0.726122
1 74 -0.343489 -2.70347 0.862027
1 75 0.452467 -3.32081 0.884651
1 3 4.70836 -0.072547 0.644139
1 50 -4.90343 1.38293 0.126225
1 4 3.82718 0.310043 0.914433
1 49 -5.69632 1.62376 0.694094
1 48 -5.75291 2.60227 0.712392
1 45 -4.96389 2.91588 0.936915
1 41 -4.87453 4.673 0.391125
1 22 1.28747 5.525 0.863615
1 21 2.19561 5.85565 1.11345
1 20 3.05333 5.61816 1.56128
1 19 2.91129 5.96019 0.6234
1 38 -3.93577 6.29383 0.602869
1 36 -2.46378 6.25215 1.52366
1 33 -2.09338 6.51752 1.46001
1 31 -0.292734 7.31282 1.4796
1 30 -1.03615 7.46237 0.825593
1 32 -1.20621 6.92546 1.64866
1 35 -2.15709 5.4525 2.05545
1 34 -1.36917 5.84979 1.57557
ITEM: TIMESTEP
15000
ITEM: NUMBER OF ATOMS
80
ITEM: BOX BOUNDS ff ff ff
-2.0000000000000000e+01 2.0000000000000000e+01
-2.0000000000000000e+01 2.0000000000000000e+01
-4.0000000000000000e+01 4.0000000000000000e+01
ITEM: ATOMS type id x y z
1 80 0.0575644 -3.99154 -0.994773
1 61 -4.84896 -1.3487 -1.53402
1 79 0.708481 -3.91309 -1.76422
1 65 -3.36623 -3.03177 -0.937086
1 66 -2.75715 -2.34541 -1.3275
1 70 -1.70213 -2.69957 -1.47712
1 78 1.09621 -3.76366 -0.837569
1 64 -4.2854 -2.73117 -0.705336
1 69 -1.63588 -1.72232 -1.33308
1 60 -5.17772 -0.418766 -1.30244
1 62 -5.14263 -1.44049 -0.570797
1 63 -4.34822 -1.79255 -1.04595
1 53 -3.9232 -0.367362 -0.671275
1 54 -3.93281 0.132393 -1.52394
1 52 -4.44471 0.486339 -0.750907
1 55 -4.19049 -0.411048 -0.732746
1 51 -4.98793 1.32936 -0.831858
1 7 4.26448 0.838509 -1.3802
1 8 4.14676 1.54629 -0.700115
1 6 4.6712 0.964704 -0.482804
1 13 5.24525 3.8549 -1.77679
1 12 6.11785 3.55337 -1.37158
1 43 -3.61991 4.60317 -0.459231
1 15 3.94847 3.97527 -0.710666
1 14 4.85594 4.29474 -0.988776
1 40 -3.59117 4.90825 -0.085626
1 28 0.0694774 6.32453 -0.351871
1 71 -1.3873 -2.34733 -0.596332
1 72 -1.11053 -2.58911 0.33377
1 77 0.545245 -3.70228 -0.00252431
1 67 -3.11272 -2.29477 -0.383009
1 68 -2.51989 -1.64785 -0.861521
1 73 -0.479427 -1.81127 0.227733
1 74 0.297622 -2.31827 0.635053
1 59 -5.45898 -0.387737 -0.341883
1 58 -4.66742 -0.585093 0.232017
1 56 -3.91404 -0.2804 0.230466
1 49 -4.70036 0.463482 -0.0453185
1 50 -4.50102 1.43013 0.0297544
1 5 5.4168 0.947543 0.206537
1 9 4.60276 2.21753 -0.0897895
1 44 -4.32188 3.89144 -0.545221
1 45 -3.8592 3.42695 0.226339
1 10 5.01208 3.12189 -0.136138
1 11 5.90668 3.50753 -0.413728
1 42 -3.86737 4.0877 0.363172
1 41 -4.56746 4.71473 0.0316328
1 16 3.19806 3.68643 -0.124833
1 17 2.65312 3.52194 0.690063
1 39 -4.30103 5.62413 -0.127742
1 30 -1.81073 6.68753 0.100424
1 29 -0.830782 6.6686 -0.0819899
1 27 0.391743 5.40036 -0.126985
1 76 1.10964 -3.25259 0.675893
1 75 1.13105 -2.40471 1.19502
1 57 -4.45442 -0.0860473 1.06085
1 1 3.57494 -0.0906209 0.40317
1 2 2.94985 0.68454 0.396236
1 3 3.85528 0.952881 0.0516987
1 4 4.58886 1.121 0.727607
1 48 -4.57964 1.34096 0.413467
1 47 -4.14209 2.2441 0.471893
1 46 -4.35252 3.04665 1.00209
1 25 0.824024 4.4657 1.35806
1 20 2.09274 4.31304 1.27544
1 18 2.2125 4.13527 1.33137
1 38 -4.51136 5.74694 0.85813
1 36 -3.51691 5.11446 1.37592
1 26 0.381975 4.60916 0.479088
1 24 0.833783 5.23741 0.718968
1 22 1.39821 5.66146 1.1096
1 21 1.56509 4.82165 0.594705
1 37 -4.08229 5.88249 1.73241
1 31 -1.32664 6.16134 0.779246
1 23 0.781703 6.22594 0.558083
1 19 1.97565 4.39724 2.26094
1 35 -2.63842 5.44993 1.69804
1 33 -1.38659 5.22536 2.50521
1 34 -1.76271 5.89738 1.83668
1 32 -1.54763 5.64651 1.61886
ITEM: TIMESTEP
20000
ITEM: NUMBER OF ATOMS
80
ITEM: BOX BOUNDS ff ff ff
-2.0000000000000000e+01 2.0000000000000000e+01
-2.0000000000000000e+01 2.0000000000000000e+01
-4.0000000000000000e+01 4.0000000000000000e+01
ITEM: ATOMS type id x y z
1 79 -0.351987 -3.80266 -0.930055
1 80 -0.140157 -3.17787 -1.6921
1 78 0.629143 -3.92451 -0.69992
1 60 -5.33458 -1.86934 -0.4416
1 63 -4.40347 -2.44146 -1.16298
1 61 -4.76024 -2.23098 -1.17139
1 64 -3.80245 -1.83386 -1.67651
1 65 -3.16656 -1.49719 -0.977704
1 68 -1.85411 -1.51199 -0.790893
1 59 -5.08203 -0.956144 -0.762208
1 54 -3.27946 -0.337203 -0.40978
1 69 -1.49325 -0.671967 -1.24394
1 70 -1.31831 -1.58371 -1.59089
1 51 -4.00772 0.820566 -0.507637
1 52 -3.62402 0.596681 -1.40469
1 53 -2.76529 0.16357 -1.09481
1 44 -2.68345 2.06208 -0.682927
1 7 4.50533 1.49991 -1.14815
1 40 -3.42451 4.26451 -0.425964
1 15 3.34264 3.50481 -1.47429
1 14 3.99838 3.69959 -0.744859
1 12 5.31327 3.65415 -1.08056
1 39 -3.64782 5.01428 -1.02959
1 41 -2.71923 4.86932 -0.80068
1 13 4.4967 3.81692 -1.60431
1 76 0.976928 -3.39292 0.817568
1 77 1.32753 -3.85869 0.00998064
1 62 -4.7519 -2.71849 -0.277785
1 66 -3.19553 -2.18366 -0.272157
1 67 -2.21567 -2.11695 -0.0863814
1 71 -0.927059 -2.00212 -0.782648
1 72 -0.605601 -1.3833 -0.0580359
1 57 -4.60493 -0.295238 0.381564
1 58 -5.30977 -0.0784099 -0.298206
1 55 -3.98054 -0.577521 0.257335
1 1 2.35431 1.09911 0.613941
1 3 3.49646 0.30266 0.748843
1 50 -4.30114 1.01997 0.427415
1 6 4.11815 0.75393 -0.620774
1 45 -2.51815 2.50903 0.188123
1 8 3.66709 1.96988 -0.875464
1 9 3.61478 2.49843 -0.0240693
1 43 -3.02873 2.98109 -0.844798
1 16 2.67665 3.34835 -0.772295
1 10 4.51152 2.93537 0.141541
1 11 5.37569 2.96867 -0.362162
1 42 -3.1663 3.96762 -0.722668
1 21 1.44527 4.46193 0.524531
1 38 -3.85423 5.23758 -0.0824505
1 37 -3.44439 5.65143 0.722536
1 27 -1.38094 5.14203 0.0163786
1 28 -0.413821 5.30256 0.165874
1 22 0.621536 5.04506 0.612865
1 30 -0.955718 6.41811 -0.352347
1 29 -0.0656956 6.2526 0.0609626
1 74 0.529152 -1.68929 0.0367581
1 75 0.981468 -2.51245 0.369887
1 56 -4.64169 -1.28288 0.509022
1 73 0.010094 -1.16785 0.696335
1 49 -4.26308 1.4232 1.35462
1 48 -3.58095 1.18351 2.0539
1 2 2.66461 0.415379 1.2982
1 4 4.46154 0.43061 1.02461
1 5 4.79195 0.764405 0.133113
1 46 -3.16815 2.40305 0.927384
1 17 2.4799 3.49961 0.196391
1 18 3.01957 4.07329 0.813614
1 25 -0.481509 4.9941 1.41348
1 20 1.59566 4.03898 1.39482
1 36 -2.54613 5.19145 0.828643
1 26 -1.14701 4.56805 0.801288
1 33 -1.85859 5.13114 1.77689
1 23 1.397 4.76544 1.17587
1 31 -1.73208 6.29385 0.251274
1 32 -1.55307 5.78591 1.0703
1 47 -3.19956 2.08758 1.87811
1 19 2.54732 3.85417 1.66722
1 34 -2.01901 4.54627 2.58498
1 35 -2.15035 5.06092 1.73129
1 24 0.498477 4.83956 1.57356
ITEM: TIMESTEP
25000
ITEM: NUMBER OF ATOMS
80
ITEM: BOX BOUNDS ff ff ff
-2.0000000000000000e+01 2.0000000000000000e+01
-2.0000000000000000e+01 2.0000000000000000e+01
-4.0000000000000000e+01 4.0000000000000000e+01
ITEM: ATOMS type id x y z
1 64 -3.81178 -2.454 -1.57461
1 68 -1.56388 -1.61242 -1.09568
1 70 -1.72445 -0.735971 -1.09011
1 69 -0.823452 -1.02197 -1.44099
1 12 4.53417 2.31131 -1.17892
1 15 2.64893 3.93974 -1.09919
1 79 -0.306201 -3.15909 -0.71955
1 62 -4.92319 -1.943 -2.03304
1 63 -4.70421 -2.30866 -1.14978
1 61 -4.51698 -1.52049 -1.21982
1 65 -3.23059 -2.12418 -0.831453
1 80 -0.0411636 -2.24091 -1.05035
1 66 -3.3579 -1.33613 -1.44097
1 67 -2.38107 -1.42764 -1.64047
1 71 -0.85511 -1.16344 -1.35911
1 1 2.40706 -0.869694 0.14111
1 52 -3.01881 0.709753 -0.87728
1 6 2.93801 0.950324 -0.116553
1 11 5.50677 2.11752 -1.10675
1 14 3.11088 3.13176 -0.74531
1 13 4.08198 3.1652 -0.968824
1 28 0.240628 5.13031 -0.903163
1 16 2.46523 4.67091 -0.455137
1 78 -0.40931 -4.02358 -0.191709
1 76 0.7303 -3.18002 0.574486
1 75 1.21701 -2.95369 -0.261924
1 60 -5.47502 -1.71949 -1.05218
1 74 0.880832 -2.03933 -0.06379
1 59 -5.60336 -0.906889 -0.495885
1 56 -4.43941 -1.03677 0.3372
1 72 -0.539173 -1.25231 -0.401834
1 73 0.334124 -1.22048 0.0865208
1 58 -4.95358 -0.286588 -0.0494989
1 53 -3.39277 -0.0392412 -0.339454
1 54 -3.79194 -0.337617 0.512234
1 2 2.36694 -0.0256629 0.699112
1 5 3.51751 0.185702 -0.379332
1 51 -3.7053 0.917227 -0.188518
1 7 3.89663 1.22678 -0.159432
1 44 -2.79828 2.6631 0.54953
1 45 -3.32999 3.51109 0.589348
1 43 -2.33237 2.02945 -0.0997866
1 8 4.69784 1.82415 -0.125412
1 9 4.98841 2.54245 0.483202
1 10 5.45125 2.81074 -0.371467
1 42 -2.45137 3.01011 -0.198942
1 25 1.08799 3.78912 -0.471957
1 41 -2.78166 3.75932 -0.768837
1 40 -3.51848 4.37399 -0.518451
1 27 0.200004 4.34911 -0.297162
1 26 0.204074 3.3489 -0.379124
1 24 1.06606 4.2071 0.439629
1 17 2.13014 3.91806 0.122356
1 38 -3.7716 5.32362 0.41733
1 37 -2.79898 5.06677 0.534393
1 29 -0.272804 5.06319 -0.0407295
1 30 -0.41488 5.53964 0.814315
1 77 -0.260863 -3.23311 0.42164
1 55 -3.47385 -1.28553 0.409511
1 3 3.24442 -0.118818 1.15933
1 57 -4.57546 -0.187306 0.858251
1 4 3.97073 0.0993859 0.512084
1 50 -3.42524 1.05971 0.766465
1 46 -3.28143 2.54075 0.8419
1 36 -2.51535 4.40267 1.22373
1 35 -1.59438 4.47912 0.873803
1 22 0.50272 4.42722 0.646255
1 20 1.75134 4.49066 1.3677
1 18 2.43043 3.80394 1.07382
1 39 -4.26328 4.47686 0.162117
1 31 -0.444575 4.85146 1.51461
1 21 1.19785 5.11454 0.81978
1 23 1.03905 5.18978 0.305926
1 49 -2.8199 1.70663 1.24837
1 48 -3.35704 2.40241 1.7522
1 47 -2.92325 3.26512 1.45551
1 19 1.8298 3.63609 1.86367
1 34 -1.97745 3.97877 1.67028
1 33 -1.4761 4.22415 2.49776
1 32 -0.53541 4.57132 2.47736
ITEM: TIMESTEP
30000
ITEM: NUMBER OF ATOMS
80
ITEM: BOX BOUNDS ff ff ff
-2.0000000000000000e+01 2.0000000000000000e+01
-2.0000000000000000e+01 2.0000000000000000e+01
-4.0000000000000000e+01 4.0000000000000000e+01
ITEM: ATOMS type id x y z
1 62 -5.00702 -1.54479 -1.8358
1 63 -4.63619 -2.25832 -2.45074
1 61 -4.31493 -2.11631 -1.37654
1 65 -3.41144 -2.45999 -1.86033
1 66 -2.51593 -2.12868 -2.18704
1 71 -0.764801 -2.67303 -1.72297
1 70 -0.468229 -1.94964 -2.36457
1 68 -1.27977 -1.02239 -2.58702
1 69 -0.398516 -0.962468 -2.15051
1 53 -3.61328 0.197754 -1.64744
1 79 0.18545 -3.2142 -1.15358
1 80 1.10358 -3.53623 -1.39605
1 60 -5.08908 -1.71833 -0.902093
1 64 -4.26296 -2.0257 -1.55593
1 72 -0.176952 -2.09855 -1.15801
1 54 -2.90559 -0.511376 -1.63529
1 55 -3.05145 -1.08248 -0.851193
1 67 -1.57153 -1.82641 -2.08572
1 52 -3.03857 0.525925 -0.900151
1 13 3.13508 3.11818 -1.58832
1 8 3.63694 1.74198 -0.503808
1 25 -0.0879231 4.05483 -0.043072
1 14 2.89498 3.52572 -0.707432
1 12 3.95364 3.18352 -1.01913
1 26 0.406137 3.62393 -0.789903
1 27 0.731902 4.52292 -1.07739
1 78 -0.311254 -3.214 -0.283637
1 77 -0.290647 -3.10153 0.710703
1 73 0.0880424 -1.84511 -0.225955
1 74 0.676191 -1.33444 0.416598
1 59 -5.51576 -1.79079 -0.0131581
1 58 -5.43607 -0.954919 0.529854
1 57 -4.54612 -1.22671 0.193218
1 56 -4.02731 -1.15796 -0.65963
1 4 3.316 -0.0154205 0.185605
1 51 -2.87097 0.982264 -0.0368422
1 7 3.47157 0.868873 -0.020667
1 45 -3.28567 2.38 0.302507
1 44 -2.48176 2.28255 -0.302185
1 42 -2.25347 3.6701 0.231646
1 43 -1.75816 2.80629 0.124682
1 24 0.175065 3.43908 0.682062
1 15 2.60025 4.35412 -0.235547
1 9 3.283 2.56781 -0.0589064
1 11 3.74812 2.40422 -0.410546
1 10 4.13635 2.87159 0.383462
1 40 -3.23597 4.43611 -0.306987
1 41 -2.42462 4.63298 0.254933
1 23 0.715779 4.27939 0.707844
1 16 2.27516 4.65108 0.657576
1 28 0.091786 5.26816 -0.819179
1 29 -0.0844151 5.13424 0.150841
1 76 0.385248 -2.95302 1.42775
1 75 0.789141 -2.16616 0.976103
1 2 2.5493 -0.797215 1.30921
1 1 3.12436 -0.807608 0.498944
1 3 3.41696 -0.790862 0.821476
1 50 -2.87536 0.985913 0.948697
1 5 3.04832 0.853713 0.618143
1 6 3.76078 1.56169 0.639596
1 47 -2.42914 2.3512 1.41625
1 46 -2.95055 3.05764 0.952067
1 34 -1.62582 3.49997 1.83536
1 17 2.79387 3.80296 0.778091
1 18 2.1276 3.06575 0.881405
1 39 -3.65825 4.22132 0.572131
1 38 -2.95773 4.78866 0.990131
1 35 -1.61776 4.23604 1.14241
1 22 0.772098 4.63258 1.64107
1 37 -2.23579 4.74643 1.70597
1 36 -1.80166 5.21395 0.929068
1 30 -0.276189 4.46657 0.854076
1 49 -2.49697 1.34477 1.80573
1 48 -3.15273 2.07072 2.04977
1 33 -0.77967 3.95411 2.09303
1 19 1.21868 3.33514 1.23326
1 32 -0.171133 4.55694 2.59548
1 20 0.822199 3.73226 2.06924
1 21 1.58368 4.3632 2.1704
1 31 -0.444416 4.94049 1.70721
ITEM: TIMESTEP
35000
ITEM: NUMBER OF ATOMS
80
ITEM: BOX BOUNDS ff ff ff
-2.0000000000000000e+01 2.0000000000000000e+01
-2.0000000000000000e+01 2.0000000000000000e+01
-4.0000000000000000e+01 4.0000000000000000e+01
ITEM: ATOMS type id x y z
1 63 -3.55856 -1.58899 -1.21306
1 66 -2.80613 -2.01382 -1.72308
1 68 -1.30054 -1.50872 -2.22638
1 69 -0.754415 -1.49377 -1.38032
1 61 -4.60217 -0.780652 -1.55152
1 62 -3.94304 -1.30796 -2.10569
1 67 -2.17113 -1.24147 -1.82311
1 70 -1.26644 -1.08837 -2.14165
1 79 -0.235739 -3.57896 -0.645715
1 80 0.704956 -3.86301 -0.471828
1 65 -2.37494 -2.57787 -1.02512
1 60 -4.81287 -1.63292 -1.06036
1 64 -2.59792 -1.71764 -1.46214
1 72 0.22473 -1.21709 -0.829902
1 73 -0.26735 -2.04488 -0.590108
1 71 -0.572264 -1.2266 -1.43764
1 52 -3.84558 -0.343495 -0.318411
1 54 -2.44094 -0.717455 -0.413764
1 11 3.05254 2.90583 -0.637317
1 14 3.29481 3.95753 -0.884491
1 13 3.8967 3.75938 -1.667
1 12 3.67461 2.82626 -1.42689
1 27 0.912021 4.15371 -0.521244
1 78 -1.17053 -3.80323 -0.392004
1 77 -0.738241 -3.03356 0.0816021
1 59 -5.57785 -2.20053 -0.72981
1 57 -4.02695 -1.93024 -0.151725
1 56 -3.39081 -1.66406 0.546793
1 76 0.0669759 -2.48045 0.349726
1 74 0.697404 -1.76079 -0.530439
1 55 -3.23832 -0.740974 0.173889
1 75 0.519098 -1.58201 0.436515
1 2 2.46645 -0.865019 0.479613
1 51 -3.04463 0.244656 -0.204899
1 3 2.6423 0.115635 0.53801
1 53 -2.99432 0.0775486 -0.598346
1 50 -3.47623 1.08123 0.0788942
1 8 3.20236 1.25348 -0.186825
1 7 3.27661 1.23852 0.819461
1 9 2.78049 2.07175 -0.592444
1 44 -2.47201 3.34848 0.728981
1 45 -2.1169 2.40811 0.643499
1 43 -2.46001 3.23142 -0.25117
1 42 -1.78423 3.19915 0.479225
1 25 -0.417912 3.1791 0.340781
1 26 0.444837 3.35074 -0.15639
1 24 0.516256 2.83379 0.415395
1 23 1.26851 3.33643 0.865986
1 15 2.37297 3.70131 -0.599302
1 10 3.73973 2.2248 -0.365086
1 41 -2.56619 3.81025 0.477831
1 40 -2.82195 4.27166 -0.370689
1 30 -0.655364 4.20374 0.0329799
1 29 -0.0147762 3.6186 -0.450414
1 16 3.13833 3.75129 0.0455351
1 28 0.0580373 4.47792 -0.933133
1 58 -4.97129 -2.09706 0.0826699
1 1 2.92103 -1.11093 1.33389
1 4 2.86067 0.262857 1.50807
1 49 -2.76907 0.772233 0.684328
1 47 -2.15422 1.63637 0.870068
1 6 2.72414 0.454173 1.01227
1 46 -3.03625 2.00552 0.545518
1 35 -1.61627 4.80472 0.310311
1 34 -1.4366 4.22116 1.09789
1 31 -0.0471083 4.39897 0.797671
1 33 -0.693325 4.67564 1.60596
1 22 1.68455 4.00175 1.48142
1 17 3.38745 4.18986 0.926281
1 39 -3.46091 4.38039 0.383104
1 38 -3.37694 5.21176 0.935622
1 37 -2.46015 5.62113 0.928126
1 36 -1.67686 5.11508 1.26019
1 48 -2.11421 0.813843 1.44697
1 5 2.1788 0.984877 1.65467
1 32 -0.0241337 3.96137 1.70451
1 19 2.19506 3.54823 2.21102
1 21 2.19297 3.15518 1.63366
1 20 1.2876 3.17883 2.02556
1 18 2.70197 3.61835 1.36525
ITEM: TIMESTEP
40000
ITEM: NUMBER OF ATOMS
80
ITEM: BOX BOUNDS ff ff ff
-2.0000000000000000e+01 2.0000000000000000e+01
-2.0000000000000000e+01 2.0000000000000000e+01
-4.0000000000000000e+01 4.0000000000000000e+01
ITEM: ATOMS type id x y z
1 63 -3.08105 -1.27947 -2.73193
1 62 -3.39843 -1.64394 -1.86418
1 64 -2.42457 -1.16423 -1.98854
1 69 -0.804099 -0.149679 -1.95097
1 12 4.05265 3.04077 -1.72091
1 80 -0.402692 -3.73742 -1.34541
1 58 -5.00991 -2.32795 0.0758076
1 66 -2.17009 -1.98971 -0.752598
1 59 -4.66037 -1.71953 -0.643599
1 60 -4.67709 -1.31789 -1.56295
1 61 -3.81662 -0.852344 -1.42539
1 65 -1.83427 -1.91065 -1.68376
1 68 -1.10807 -0.817178 -1.25414
1 67 -1.69537 -1.1531 -0.513503
1 71 -0.535717 -1.2861 -1.83129
1 72 0.231712 -1.20771 -1.19618
1 73 1.07111 -1.12399 -0.631545
1 70 0.113691 -0.556552 -2.01795
1 11 3.99301 2.05884 -1.5674
1 43 -3.40712 2.91341 -0.902115
1 41 -2.19056 3.46204 -0.521177
1 28 -0.626943 3.16425 -0.868688
1 14 2.82529 3.12667 -1.30259
1 13 3.25953 3.54806 -2.07444
1 29 0.104777 3.80968 -1.12413
1 78 0.374357 -3.59013 0.0889499
1 79 -0.519659 -3.68712 -0.355829
1 77 -0.089584 -3.14894 -0.678347
1 57 -4.55807 -1.4394 -0.0705767
1 76 -0.0236832 -2.41348 -0.00541995
1 75 0.10084 -1.52583 -0.455682
1 74 0.91139 -2.10216 -0.46483
1 56 -4.46226 -0.83714 0.729639
1 53 -3.35818 0.0653218 -0.0119935
1 52 -3.55544 0.93872 -0.459799
1 54 -2.98614 -0.571523 0.636689
1 51 -2.81234 1.52364 -0.130626
1 50 -2.10289 1.41837 0.570166
1 48 -2.35404 1.15411 0.383534
1 7 2.32333 0.46811 0.105078
1 9 3.07866 1.91045 0.181626
1 10 3.52997 1.80203 -0.719633
1 44 -3.52022 2.78532 0.0819722
1 42 -2.48682 2.53715 -0.747173
1 26 0.157679 2.6316 0.569298
1 27 0.14511 2.67016 -0.428374
1 15 2.23894 3.02978 -0.506247
1 16 2.84606 3.34973 0.24481
1 40 -1.72445 3.7345 0.326493
1 30 -0.0781065 3.41732 -0.224228
1 31 0.131054 4.38246 -0.147466
1 55 -3.67145 -0.71805 1.33426
1 2 2.94715 -1.17484 1.01819
1 1 2.60094 -2.08158 1.26768
1 3 3.02619 -0.431511 1.66858
1 49 -2.12165 0.66237 1.22994
1 5 2.48714 -0.104506 1.49489
1 6 1.79058 0.377448 0.96037
1 47 -2.53733 2.02106 0.823618
1 8 2.55187 1.24864 0.701849
1 46 -2.01744 2.74126 1.25287
1 25 0.606327 1.8645 0.122859
1 24 0.832936 2.48864 0.894741
1 45 -2.80251 3.05385 0.721472
1 21 1.00829 3.59413 1.66021
1 23 0.662126 3.40925 1.17837
1 17 3.29024 2.96938 1.04785
1 38 -2.81687 3.98703 1.56251
1 39 -1.93095 4.20361 1.18832
1 36 -2.08443 4.44701 1.0703
1 34 -1.05844 4.90107 0.979252
1 32 -0.344302 4.63317 0.693961
1 35 -1.89241 5.32056 0.62194
1 37 -2.61171 4.9396 1.77086
1 4 2.302 -0.61635 2.33892
1 18 2.91644 2.16294 1.51305
1 20 1.74371 2.9588 1.93942
1 19 2.63669 2.74317 2.27763
1 33 -0.554466 4.29884 1.60925
1 22 0.674891 4.41266 1.21471
ITEM: TIMESTEP
45000
ITEM: NUMBER OF ATOMS
80
ITEM: BOX BOUNDS ff ff ff
-2.0000000000000000e+01 2.0000000000000000e+01
-2.0000000000000000e+01 2.0000000000000000e+01
-4.0000000000000000e+01 4.0000000000000000e+01
ITEM: ATOMS type id x y z
1 63 -2.73474 -1.86081 -3.12809
1 62 -3.60733 -1.4459 -2.8943
1 64 -2.22345 -1.18442 -2.61008
1 61 -4.18214 -1.4689 -2.0859
1 72 -0.209688 -1.13749 -2.05924
1 71 -0.325288 -0.639981 -2.92089
1 68 -1.36749 0.308762 -2.0773
1 70 -0.918014 -0.668569 -2.09672
1 12 2.81007 2.04726 -2.19407
1 79 0.128217 -3.55418 -0.430845
1 73 0.208344 -1.02706 -1.16237
1 74 0.586148 -1.84655 -0.732668
1 60 -3.89231 -1.93773 -1.27387
1 65 -2.49729 -1.13876 -1.65825
1 66 -1.80674 -0.864924 -1.00127
1 67 -1.62179 -0.649394 -1.95918
1 75 -0.332217 -1.71683 -0.357925
1 69 -0.551329 0.0785514 -1.54126
1 10 2.42543 1.89503 -0.97345
1 13 3.2884 2.30813 -1.36329
1 29 0.597098 3.19348 -0.780303
1 11 2.43877 2.71404 -1.54827
1 14 2.99277 2.80987 -0.563113
1 80 -0.587667 -4.1847 -0.678541
1 78 0.230157 -2.6248 -0.0562663
1 58 -3.26557 -2.02437 0.44395
1 76 -1.00673 -2.45141 -0.299271
1 59 -3.32435 -2.29634 -0.512069
1 57 -3.72385 -1.20705 0.818472
1 53 -3.41525 -0.392697 -0.640108
1 52 -2.67522 0.0121416 -0.112137
1 7 1.8474 0.600398 0.301525
1 46 -3.25614 1.65336 0.297807
1 51 -2.098 0.610875 0.449343
1 49 -2.61709 1.10586 -0.15791
1 26 0.143892 1.95332 -0.0230812
1 8 2.76027 0.444171 -0.0619322
1 9 3.06544 1.35829 -0.399453
1 45 -3.68364 2.4647 -0.125238
1 48 -1.85647 1.61209 0.243685
1 50 -2.01125 1.61108 0.47681
1 27 -0.491641 2.40478 0.616342
1 25 1.07378 1.58629 -0.122828
1 15 2.34764 3.17389 0.11288
1 43 -2.77201 3.64097 0.250891
1 40 -1.77069 3.44282 0.0153972
1 28 0.124929 2.54946 -0.161759
1 30 0.878757 2.9393 0.15465
1 18 2.23067 3.16555 0.40302
1 16 2.50086 2.88807 1.05368
1 31 0.858614 3.5706 0.923971
1 35 -2.14909 5.17808 0.346821
1 77 -0.527748 -2.45421 0.57686
1 56 -3.23622 -0.619557 1.46871
1 1 3.25363 -1.29408 2.01622
1 55 -3.74737 0.208433 1.18444
1 54 -3.43832 -0.258162 0.348394
1 6 2.60415 0.0921323 0.726607
1 24 1.82199 2.02301 0.364359
1 47 -2.51761 1.7568 0.97861
1 23 1.50456 1.93483 1.31603
1 44 -2.92709 2.69279 0.520031
1 42 -1.77678 3.56891 0.171801
1 41 -1.8047 2.76607 0.748064
1 39 -1.56644 3.40121 0.991439
1 32 0.216316 4.09537 1.48237
1 19 2.6064 3.22885 1.33131
1 17 3.228 3.24731 0.489181
1 33 -0.621889 4.34633 0.986056
1 20 1.97558 3.62444 1.99381
1 36 -1.96115 4.85494 1.27302
1 34 -1.42886 4.91799 0.976728
1 2 2.55289 -1.61781 2.66254
1 3 2.06762 -1.29866 1.83636
1 5 2.53432 -0.177749 1.68388
1 4 1.59807 -0.483768 1.53543
1 22 0.845954 2.22443 2.00471
1 21 1.0717 3.19971 2.12719
1 37 -2.77079 4.61455 1.81512
1 38 -1.91088 4.1736 1.51508
ITEM: TIMESTEP
50000
ITEM: NUMBER OF ATOMS
80
ITEM: BOX BOUNDS ff ff ff
-2.0000000000000000e+01 2.0000000000000000e+01
-2.0000000000000000e+01 2.0000000000000000e+01
-4.0000000000000000e+01 4.0000000000000000e+01
ITEM: ATOMS type id x y z
1 63 -2.52451 -2.01301 -2.15881
1 64 -2.09252 -1.14353 -2.40153
1 71 -0.00412663 -0.438149 -2.96424
1 62 -2.91951 -1.16211 -2.49105
1 60 -4.75734 -1.3494 -2.33346
1 61 -3.86135 -0.902171 -2.30725
1 72 0.147233 -1.0131 -2.17642
1 73 0.826584 -1.73873 -2.07949
1 65 -1.77956 -0.289903 -2.84219
1 66 -1.34962 0.0923327 -2.02891
1 70 0.327665 -0.422082 -2.01929
1 80 -0.50033 -3.55468 -1.28074
1 59 -4.30249 -1.83528 -1.58953
1 58 -4.00785 -2.45329 -0.838047
1 75 -0.193867 -1.71875 -0.976557
1 74 0.781225 -1.88297 -1.08522
1 67 -1.17557 0.355054 -1.08012
1 69 -0.457486 -0.175441 -1.45792
1 68 -0.274923 0.783191 -1.23044
1 10 1.77958 0.725883 -1.2355
1 8 1.34066 0.0550501 -0.690841
1 11 1.84389 1.50206 -0.62131
1 9 2.33302 0.0928328 -0.686809
1 45 -3.14304 1.81733 0.0882739
1 12 2.27918 2.27073 -1.09987
1 13 2.3312 2.97832 -0.40743
1 79 -0.736207 -3.62074 -0.311819
1 78 -0.620831 -3.2654 0.616813
1 77 -0.578838 -2.56213 -0.0888301
1 57 -3.17925 -2.15865 -0.389257
1 76 -0.840309 -1.60741 -0.220112
1 56 -3.57262 -1.22983 -0.366056
1 53 -1.87165 -1.26393 0.43614
1 55 -2.81321 -1.12848 0.290943
1 52 -1.18217 -0.563598 0.211813
1 51 -1.83913 0.136609 -0.0836298
1 7 1.64168 -0.552674 0.0330202
1 6 1.82601 0.336771 0.45133
1 46 -2.19024 1.63231 -0.126481
1 43 -2.22725 2.41103 0.421027
1 27 -0.731595 2.07331 -0.274788
1 25 0.533751 2.01405 0.0673303
1 14 3.26434 2.9753 -0.0120119
1 44 -3.00263 2.76102 -0.115977
1 40 -1.55647 3.26179 0.250376
1 28 -0.659974 3.05711 -0.329781
1 29 0.0539959 3.09017 0.381111
1 30 0.828252 3.47145 0.864492
1 18 2.15847 4.08683 1.08553
1 19 1.84135 4.06582 0.149729
1 54 -2.45327 -1.00213 1.21033
1 4 3.34411 0.255185 1.53905
1 5 2.38505 0.401776 1.27507
1 49 -2.1615 0.398618 1.75639
1 47 -2.51596 1.29122 0.751697
1 50 -1.67857 0.161154 0.905063
1 24 1.0943 1.45042 0.671266
1 42 -1.52092 2.07688 1.02485
1 26 -0.184881 2.64554 0.350875
1 21 1.34686 3.2926 1.79702
1 16 3.18214 2.64839 1.57743
1 39 -1.85542 3.03765 1.18159
1 41 -1.31066 3.02347 1.18403
1 20 1.85297 3.86921 1.1119
1 15 3.72237 2.50459 0.739325
1 17 2.81256 3.34537 0.956738
1 36 -2.90048 4.38852 0.916172
1 35 -1.90251 4.47496 0.835287
1 31 -0.159812 3.41837 0.99577
1 32 -0.413448 4.38643 0.88677
1 34 -1.4999 5.37027 0.936756
1 3 2.81787 -0.443056 2.02099
1 1 3.70975 -0.874163 1.54298
1 2 2.87338 -1.39878 1.72464
1 48 -2.16822 1.39125 1.68214
1 23 0.760871 1.72923 1.56534