ITEM: TIMESTEP
0
ITEM: NUMBER OF ATOMS
80
ITEM: BOX BOUNDS ff ff ff
-2.0000000000000000e+01 2.0000000000000000e+01
-2.0000000000000000e+01 2.0000000000000000e+01
-4.0000000000000000e+01 4.0000000000000000e+01
ITEM: ATOMS type id x y z
1 80 -0.47803 -4.085 -0.596936
1 68 -3.41634 -3.2224 -0.611913
1 69 -3.16955 -3.35875 -0.648425
1 73 -2.1778 -3.77099 -0.568829
1 61 -5.02787 -1.82941 -0.957158
1 62 -4.81868 -2.07798 -0.716046
1 8 6.20031 2.67447 -0.837081
1 10 6.01891 3.47489 -0.955271
1 45 -5.88504 3.87129 -0.762589
1 42 -5.31235 5.01265 -0.640086
1 14 5.31272 5.01207 -0.589197
1 28 0.000365982 7.9 -0.815824
1 26 0.915977 7.83377 -0.881388
1 21 3.06772 7.1111 -0.656768
1 74 -1.93131 -3.84435 -0.248517
1 75 -1.68601 -3.90724 0.055985
1 76 -1.44201 -3.96031 -0.301562
1 77 -1.19933 -4.00414 0.528027
1 78 -0.957883 -4.03925 0.220752
1 79 -0.717522 -4.06609 0.47652
1 65 -4.14107 -2.72297 -0.228425
1 67 -3.66117 -3.07138 -0.34613
1 70 -2.92166 -3.48107 -0.317396
1 71 -2.67337 -3.59006 0.364029
1 72 -2.42527 -3.68646 -0.0118263
1 64 -4.37386 -2.52462 -0.393429
1 59 -5.41222 -1.28215 -0.253526
1 60 -5.22624 -1.56406 -0.428295
1 55 -6.00018 0.000555938 0.19117
1 56 -5.87977 -0.341901 -0.088372
1 2 6.10013 0.355282 -0.0717076
1 51 -6.26466 1.48532 -0.359713
1 52 -6.23383 1.09976 -0.0922737
1 53 -6.17862 0.722736 -0.111947
1 3 6.17851 0.722143 -0.0629778
1 4 6.23376 1.09915 0.0307284
1 5 6.26463 1.4847 0.259797
1 48 -6.20022 2.6751 -0.353784
1 49 -6.24875 2.27494 0.205573
1 50 -6.26996 1.87768 -0.395057
1 6 6.26997 1.87705 -0.0348432
1 7 6.24881 2.27431 -0.0153736
1 46 -6.01872 3.47553 0.384527
1 47 -6.12369 3.07604 0.272497
1 9 6.12383 3.0754 0.494996
1 43 -5.53158 4.64223 0.470128
1 11 5.88528 3.87066 0.0514697
1 12 5.72289 4.26036 -0.100827
1 13 5.53191 4.64163 -0.0799878
1 41 -5.06554 5.36989 -0.0145083
1 40 -4.79196 5.71162 0.482214
1 15 5.06595 5.36933 -0.377146
1 37 -3.82234 6.62144 0.449381
1 38 -4.16899 6.33952 -0.384462
1 39 -4.49269 6.03555 0.203044
1 36 -3.45442 6.87935 -0.128019
1 20 3.45502 6.87896 -0.453413
1 19 3.82291 6.62101 -0.0358324
1 35 -3.06709 7.11145 -0.15525
1 33 -2.24245 7.4918 0.495494
1 34 -2.66237 7.31608 0.0564417
1 30 -0.915254 7.83388 -0.0755936
1 27 0.459509 7.8834 -0.218347
1 29 -0.458779 7.88345 0.217407
1 25 1.36713 7.75148 0.4468
1 24 1.81035 7.63713 0.494368
1 66 -3.90311 -2.90508 0.804348
1 63 -4.60019 -2.30969 0.664595
1 57 -5.74059 -0.67042 0.862604
1 58 -5.5842 -0.984083 0.546904
1 54 -6.10028 0.355857 0.65023
1 1 6 0 0.990403
1 44 -5.72261 4.26098 0.962331
1 16 4.79242 5.71109 0.614466
1 17 4.49319 6.03505 0.658247
1 18 4.16953 6.33906 0.945315
1 32 -1.80965 7.63734 0.832931
1 31 -1.36641 7.75164 0.673984
1 22 2.66302 7.31578 0.609796
1 23 2.24313 7.49155 0.978883
ITEM: TIMESTEP
5000
ITEM: NUMBER OF ATOMS
80
ITEM: BOX BOUNDS ff ff ff
-2.0000000000000000e+01 2.0000000000000000e+01
-2.0000000000000000e+01 2.0000000000000000e+01
-4.0000000000000000e+01 4.0000000000000000e+01
ITEM: ATOMS type id x y z
1 70 -1.26229 -2.27696 -1.80319
1 60 -2.8596 -0.52505 -2.27915
1 61 -2.45399 0.315741 -1.94537
1 71 -0.943165 -2.52666 -0.901191
1 80 0.529086 -1.4401 -1.47956
1 59 -3.48909 -1.18797 -1.85603
1 69 -1.76666 -1.41904 -1.7245
1 62 -2.22824 -0.390934 -1.27179
1 54 -3.11012 0.557362 -1.13992
1 7 3.97721 0.621391 -1.37472
1 8 4.40891 1.31945 -0.802001
1 43 -2.50237 1.72742 -0.740278
1 13 2.4755 1.92143 -0.811323
1 42 -3.0361 2.59244 -0.712784
1 24 0.812659 2.13539 -1.06552
1 14 3.06207 2.19249 -1.57353
1 23 1.1331 2.84166 -1.69844
1 15 3.4849 3.00439 -1.16915
1 22 1.42258 3.52719 -1.02855
1 78 0.965652 -2.92575 -0.281109
1 64 -3.08535 -1.66144 -0.0441389
1 72 -1.22569 -2.05764 -0.0695838
1 73 -0.86549 -1.43341 0.612379
1 79 0.594549 -2.29237 -0.963103
1 58 -3.95356 -0.934423 -1.00311
1 63 -2.79479 -0.904959 -0.630369
1 57 -3.94986 -0.833858 -0.0115867
1 68 -1.57064 -1.28074 -0.75233
1 3 3.03783 -0.994624 0.56847
1 53 -3.68114 0.807664 -0.350552
1 4 2.53006 -0.158708 0.802576
1 52 -4.39083 0.877489 0.34986
1 55 -2.88819 0.407286 -0.175268
1 5 2.92306 0.611819 0.274995
1 6 3.32068 0.762135 -0.625581
1 46 -3.70252 2.3565 0.242199
1 45 -3.02441 1.61458 0.316814
1 44 -2.08441 1.36139 0.102604
1 12 2.09767 1.66236 0.0791271
1 9 4.3109 1.9994 -0.0857749
1 41 -3.33123 3.52103 -0.473334
1 36 -1.9121 2.47161 0.230864
1 25 0.539581 2.73733 -0.329142
1 19 1.87012 2.61492 1.04289
1 40 -2.96126 4.39154 -0.144234
1 37 -2.33766 3.34165 -0.0328866
1 32 -0.758753 3.16899 0.0119999
1 27 0.425622 4.54043 0.505572
1 26 0.517388 3.68177 0.0166774
1 21 1.63854 3.94638 -0.142121
1 20 1.56706 3.51829 0.749538
1 16 3.44099 3.59049 -0.365742
1 17 2.94297 3.79674 0.472949
1 39 -2.2981 5.09659 0.0313303
1 38 -1.86251 4.20967 0.150199
1 31 -0.973536 4.11032 -0.271875
1 30 -0.995574 5.04018 0.0935306
1 76 0.0390289 -2.97732 1.48452
1 77 0.544773 -2.958 0.621613
1 74 -0.768574 -1.50736 1.58521
1 65 -3.34291 -1.6903 0.920947
1 66 -2.70756 -0.941923 0.764311
1 67 -1.90169 -1.12202 0.17997
1 2 3.29383 -1.90486 0.917976
1 56 -3.40266 -0.153141 0.489186
1 51 -3.71418 1.09898 1.06522
1 50 -2.84997 1.06323 1.53191
1 47 -3.78277 2.16524 1.22252
1 48 -2.91997 2.4874 1.58022
1 49 -2.20468 1.79761 1.68481
1 11 2.61776 1.76373 0.912899
1 10 3.49958 1.91079 0.471969
1 35 -1.49075 2.30409 1.11034
1 18 2.73188 3.11694 1.16544
1 33 -0.664637 2.90063 0.978827
1 29 -1.08401 5.30671 1.04887
1 28 -0.205595 4.8561 1.21993
1 75 -0.353896 -2.26639 2.06818
1 1 3.56944 -1.69762 1.85058
1 34 -1.0556 2.7867 1.86913
ITEM: TIMESTEP
10000
ITEM: NUMBER OF ATOMS
80
ITEM: BOX BOUNDS ff ff ff
-2.0000000000000000e+01 2.0000000000000000e+01
-2.0000000000000000e+01 2.0000000000000000e+01
-4.0000000000000000e+01 4.0000000000000000e+01
ITEM: ATOMS type id x y z
1 60 -2.17566 -0.508768 -3.40726
1 59 -2.50117 -1.01467 -2.59105
1 70 -0.38602 -0.801594 -1.65869
1 80 0.47428 -1.24308 -1.48759
1 62 -1.53225 -0.435023 -2.15459
1 61 -1.65074 0.18238 -2.93324
1 69 -0.376215 0.200549 -1.66664
1 24 0.0754119 1.79609 -2.08148
1 23 0.714718 2.5709 -2.10718
1 57 -3.08413 -1.43117 -0.723778
1 58 -2.70852 -1.24788 -1.644
1 63 -1.78503 -0.871341 -1.27634
1 71 -0.502268 -1.56541 -1.01791
1 79 0.919253 -1.85609 -0.82909
1 68 -0.602075 -0.286556 -0.812201
1 13 0.152542 0.437394 -0.762966
1 5 1.76628 -0.0786777 -1.19089
1 54 -2.11256 0.523704 -0.702641
1 43 -1.08018 1.71241 -0.619543
1 14 0.849016 0.902569 -1.32498
1 6 2.14012 0.57221 -1.84831
1 15 1.65104 1.30522 -0.887109
1 7 2.31277 1.55256 -1.73187
1 41 -1.54285 2.78355 -0.505556
1 42 -0.873438 2.50007 -1.18415
1 25 -0.111049 1.87068 -1.09969
1 22 1.30534 2.6034 -1.30429
1 72 0.0863113 -1.22199 -0.295018
1 78 0.986499 -1.87274 0.182954
1 64 -1.61273 -1.15342 -0.340899
1 67 -0.877656 -0.843066 -0.024435
1 73 -0.0680332 -0.769716 0.575558
1 55 -2.17747 -0.22284 -0.062674
1 56 -3.08663 -0.498159 -0.350953
1 45 -1.08547 0.286726 0.327838
1 12 0.742109 0.0454558 -0.055334
1 4 1.74686 -0.5786 -0.329582
1 53 -2.24931 0.546282 0.280833
1 46 -1.50512 0.986876 0.877506
1 44 -1.08203 0.706084 -0.597914
1 11 1.64319 0.324035 0.265498
1 10 2.55682 0.704328 0.269025
1 8 2.99374 1.8303 -1.04683
1 9 3.06479 0.950387 -0.560355
1 31 -0.501643 2.12924 0.327546
1 32 -0.288593 1.19632 0.0381821
1 26 0.260933 2.4245 -0.341989
1 21 1.34426 2.12458 -0.428775
1 16 2.16327 1.57751 -0.0797537
1 40 -2.39889 2.51693 -0.0663073
1 77 0.555047 -1.85599 1.07573
1 76 -0.235189 -2.23495 1.58974
1 65 -2.19559 -1.28509 0.469861
1 66 -1.23369 -1.47151 0.677891
1 74 -0.65008 -0.726066 1.37664
1 3 2.02497 -0.885075 0.601686
1 52 -2.11774 0.135251 1.16935
1 51 -1.33779 0.0873178 1.76825
1 35 -0.265577 0.38935 1.25128
1 34 0.692907 0.176242 1.05766
1 47 -2.15601 1.17881 1.6212
1 36 -0.739607 1.07106 1.80424
1 33 0.561433 0.967272 0.488079
1 38 -2.17772 2.19763 1.64058
1 37 -1.35264 1.82356 2.07039
1 17 2.56821 2.1132 0.65428
1 20 1.26235 1.92866 0.555356
1 39 -2.52529 1.95674 0.728248
1 30 -1.17313 2.59743 0.897834
1 27 0.487214 2.85693 0.539131
1 28 0.401199 2.92103 1.52899
1 75 -0.94625 -1.56422 1.84152
1 2 1.64735 -0.908108 1.53189
1 50 -1.11942 0.598154 2.59556
1 48 -2.31977 1.49685 2.5449
1 49 -1.43251 1.48301 2.98956
1 18 2.16952 2.11872 1.57535
1 19 1.31937 1.5809 1.49911
1 29 -0.570018 2.76818 1.66667
1 1 2.04379 -0.928598 2.44826
ITEM: TIMESTEP
15000
ITEM: NUMBER OF ATOMS
80
ITEM: BOX BOUNDS ff ff ff
-2.0000000000000000e+01 2.0000000000000000e+01
-2.0000000000000000e+01 2.0000000000000000e+01
-4.0000000000000000e+01 4.0000000000000000e+01
ITEM: ATOMS type id x y z
1 59 -1.43198 -0.820072 -3.01946
1 60 -1.28444 0.0710447 -3.44651
1 61 -0.695146 0.397718 -2.70472
1 6 1.85991 0.738061 -2.93405
1 58 -1.52757 -1.34647 -2.16733
1 70 0.380288 -1.09963 -1.63607
1 62 -1.33323 0.0809142 -1.97127
1 69 0.233976 -0.122584 -1.8036
1 4 1.34161 -0.437751 -1.93971
1 5 1.08487 0.121308 -2.74911
1 7 2.55521 0.359586 -2.34377
1 8 3.05092 0.386895 -1.46282
1 24 -0.22756 1.12227 -1.83209
1 23 0.181232 0.985293 -2.73955
1 42 -1.50212 1.90664 -1.77282
1 22 0.569996 1.45296 -1.95499
1 79 -0.720118 -2.15995 -0.80455
1 80 0.0897328 -2.68479 -1.06952
1 57 -2.06521 -1.52508 -1.33045
1 71 0.290221 -1.55146 -0.745217
1 3 1.23423 -0.747331 -1.00277
1 56 -2.50377 -0.762561 -0.815363
1 63 -1.60622 0.144759 -1.00096
1 68 -0.566211 -0.0292974 -1.19018
1 13 0.60068 0.317557 -0.873778
1 9 3.11634 -0.340867 -0.796036
1 43 -1.61173 1.23452 -1.05862
1 25 -0.0958694 1.84851 -1.13363
1 14 1.21595 0.582566 -1.62746
1 21 0.94708 1.75497 -1.07164
1 15 1.81848 0.801018 -0.85201
1 41 -1.2595 2.41331 -0.950155
1 26 -0.245137 2.27083 -0.249221
1 78 -0.410175 -2.39645 0.109061
1 64 -1.55448 -0.322813 -0.102547
1 66 -0.820816 -1.16196 0.451062
1 67 -0.574681 -0.588409 -0.334179
1 72 0.36159 -1.17679 0.177276
1 2 1.31413 -1.33611 -0.187605
1 55 -2.50638 -0.0218263 -0.134787
1 12 0.742429 0.107238 0.112734
1 11 1.67001 0.101054 0.450338
1 10 2.49814 -0.169278 -0.0317936
1 44 -1.40207 0.734502 -0.213514
1 33 0.205691 1.28125 0.166746
1 20 1.09017 1.64882 -0.0953494
1 16 2.44547 1.09108 -0.130555
1 40 -1.37606 2.03511 -0.0487666
1 27 -0.317817 2.30137 0.741566
1 77 0.349118 -2.11849 0.719558
1 65 -1.81134 -1.0457 0.532668
1 74 -0.218327 -0.384997 1.62949
1 1 1.45646 -1.79971 0.679696
1 54 -2.22697 -0.0231667 0.833882
1 53 -1.98427 -0.658268 1.55713
1 73 -0.199222 -0.495943 0.641756
1 45 -1.03487 0.207738 0.537865
1 46 -1.09017 0.0750851 1.52257
1 34 0.474052 0.728102 0.947776
1 32 -0.467147 1.3522 0.9141
1 19 1.60715 1.28632 0.668343
1 18 2.30511 0.675864 1.04043
1 17 2.80377 1.48009 0.70897
1 38 -1.52404 2.0779 1.92254
1 39 -1.4267 2.19043 0.933245
1 28 -0.265631 3.09373 1.35623
1 76 0.547116 -1.60763 1.5602
1 52 -1.70285 -1.12693 2.39463
1 75 0.0367836 -1.11846 2.25686
1 47 -1.44236 -0.120726 2.43321
1 37 -1.22806 1.52165 2.69594
1 35 0.174978 0.559469 1.88286
1 36 -0.446205 0.911675 2.58727
1 30 -0.418447 2.32972 2.60264
1 31 -0.601582 1.9699 1.68832
1 29 -0.172763 3.27391 2.34594
1 51 -0.875273 -0.930686 2.91464
1 48 -1.59974 -0.00841503 3.41358
1 50 -0.225897 -0.435413 3.46826
1 49 -0.80862 0.16469 3.99947
ITEM: TIMESTEP
20000
ITEM: NUMBER OF ATOMS
80
ITEM: BOX BOUNDS ff ff ff
-2.0000000000000000e+01 2.0000000000000000e+01
-2.0000000000000000e+01 2.0000000000000000e+01
-4.0000000000000000e+01 4.0000000000000000e+01
ITEM: ATOMS type id x y z
1 60 -0.696876 -0.357412 -3.24501
1 59 -0.892972 -1.30539 -2.95817
1 5 0.575095 -0.592131 -2.71625
1 6 1.35115 -0.0479796 -2.40519
1 61 -1.01902 0.591794 -3.29854
1 24 -0.747038 1.62053 -3.11417
1 23 -0.0357993 0.967717 -3.4142
1 57 -2.02164 -0.247718 -2.12671
1 58 -1.77447 -0.834965 -2.89437
1 69 0.0488929 -0.981292 -1.61888
1 4 1.45543 -0.658028 -2.25474
1 62 -1.44123 0.822462 -2.43648
1 22 0.23255 1.54338 -2.63257
1 21 0.413427 1.74403 -1.68018
1 7 2.33679 0.114741 -2.38559
1 25 -0.837797 2.06898 -2.23097
1 80 0.0397581 -2.90297 -1.28999
1 56 -2.48593 -0.335783 -1.23313
1 64 -1.36675 -0.138634 -0.70773
1 70 0.819746 -1.60739 -1.58783
1 68 -0.219763 -0.626346 -0.738039
1 3 1.56376 -0.981812 -1.32865
1 63 -1.36228 0.411464 -1.52935
1 44 -0.233366 0.396217 -0.944364
1 13 0.703934 0.0934186 -1.40899
1 14 1.49986 0.383937 -0.871527
1 8 2.80291 0.00974169 -1.50559
1 43 -0.766734 1.17949 -1.29013
1 15 1.97786 0.810795 -0.108416
1 26 -0.557498 2.17773 -1.26758
1 20 0.445029 1.30526 -0.77754
1 79 -0.277327 -2.15438 -0.700656
1 78 -0.170795 -1.70615 0.16762
1 71 0.599839 -1.15417 -0.733965
1 55 -2.69403 -0.647745 -0.289485
1 67 -0.403261 -0.513876 0.244922
1 2 1.56582 -1.14846 -0.35592
1 72 0.557247 -0.879752 0.238841
1 65 -1.39481 -0.57071 0.205896
1 12 0.729994 0.206728 -0.409949
1 10 2.18721 -0.445246 0.308245
1 9 2.35271 -0.218706 -0.653434
1 42 -1.21597 1.27199 -0.409843
1 45 -0.827534 0.681013 -0.200057
1 41 -1.5948 1.57831 0.459808
1 16 2.79611 0.607466 0.429175
1 27 -0.22713 1.93145 -0.357625
1 19 0.725447 1.48026 0.172629
1 53 -1.98687 -1.12406 1.50824
1 66 -0.918749 -0.772853 1.06675
1 77 -0.145744 -1.53581 1.15542
1 1 1.88005 -1.52847 0.502777
1 54 -2.37439 -0.754095 0.657625
1 46 -0.984065 0.456276 0.770607
1 73 0.632056 -0.325454 1.08611
1 11 1.34238 0.0674038 0.36108
1 40 -1.67716 1.31837 1.42555
1 33 0.327394 0.634165 1.17672
1 18 1.17749 0.947832 0.867108
1 17 2.15553 0.967519 1.11786
1 29 -0.446105 1.95545 1.58756
1 32 0.0235601 1.12631 1.98914
1 28 -0.159983 1.8525 0.637059
1 52 -1.17604 -1.54555 1.90265
1 75 0.348622 -0.576687 2.6038
1 76 0.275898 -1.39525 2.02055
1 47 -0.860852 0.717258 1.72744
1 74 -0.0492369 -0.173284 1.79351
1 39 -1.61734 1.17593 2.39206
1 34 1.04134 0.512326 1.88168
1 31 0.373193 1.75343 2.68911
1 30 -0.618011 1.71526 2.5367
1 51 -0.805491 -1.70492 2.81512
1 50 -0.62649 -1.11712 3.59837
1 48 -0.481467 0.570581 2.63598
1 49 -0.350326 -0.218707 3.26922
1 35 0.871939 0.8983 2.78703
1 38 -1.4904 0.618447 3.22063
1 36 0.367701 0.83432 3.63423
1 37 -0.629823 0.769525 3.73729
ITEM: TIMESTEP
25000
ITEM: NUMBER OF ATOMS
80
ITEM: BOX BOUNDS ff ff ff
-2.0000000000000000e+01 2.0000000000000000e+01
-2.0000000000000000e+01 2.0000000000000000e+01
-4.0000000000000000e+01 4.0000000000000000e+01
ITEM: ATOMS type id x y z
1 60 -1.08208 0.00651131 -3.84341
1 5 0.431142 0.182745 -3.84484
1 59 -2.03516 -0.136033 -3.54264
1 61 -0.722645 -0.11189 -2.92755
1 4 0.749997 -0.688673 -3.43695
1 6 1.20633 0.701809 -3.4683
1 23 -0.794043 1.08413 -3.23823
1 22 0.109583 1.05617 -2.83379
1 24 -1.01947 1.94848 -2.76874
1 58 -1.95353 -0.368265 -2.57852
1 70 -0.241799 -0.892749 -2.01028
1 3 1.05912 -1.4294 -2.85289
1 2 1.22912 -1.71111 -1.89665
1 57 -2.36163 -0.512805 -1.67663
1 7 1.4637 0.133376 -2.68215
1 62 -0.899191 0.180459 -1.97575
1 21 0.649937 1.00743 -1.99666
1 25 -0.989378 2.31832 -1.83384
1 80 0.353815 -2.36905 -1.56231
1 1 1.53017 -2.21003 -1.10768
1 71 0.283029 -1.0358 -1.17569
1 72 0.976153 -1.26136 -0.488355
1 9 1.67741 -0.608946 -0.873692
1 56 -2.53934 -0.311506 -0.717896
1 63 -1.20937 -0.044849 -1.05315
1 69 0.254147 -0.0370538 -1.8352
1 8 1.48426 -0.28808 -1.78789
1 13 1.03658 -0.0138662 -0.177582
1 15 2.18542 0.35118 -0.171674
1 44 -0.615884 1.01304 -1.0297
1 20 0.401122 0.829026 -1.03291
1 14 1.50607 0.555763 -0.871083
1 43 -1.3973 1.64067 -1.17109
1 26 -0.361116 2.16175 -1.08092
1 79 0.0813764 -1.95606 -0.686299
1 78 0.0415664 -1.58596 0.234735
1 65 -1.00884 -1.15789 0.571978
1 67 -0.128131 -0.621304 -0.0284312
1 73 1.28536 -1.76149 0.31016
1 10 2.15882 -1.02332 -0.0950612
1 55 -2.54767 0.0732942 0.202997
1 64 -0.965079 -0.595461 -0.25571
1 45 -0.236805 0.874447 -0.111536
1 68 0.244143 -0.534127 -0.9686
1 12 1.22117 0.135504 0.799902
1 16 2.44662 0.243915 0.79734
1 42 -1.98195 1.54964 -0.37639
1 19 0.789723 1.2634 -0.200852
1 27 -0.0384742 2.33789 -0.153648
1 66 -0.303173 -0.560118 0.95226
1 77 0.419239 -1.86201 1.11985
1 74 1.43444 -1.76562 1.29888
1 54 -2.20436 -0.441196 0.976296
1 46 -0.25536 0.611571 0.859049
1 47 0.598452 0.618167 1.38543
1 11 1.87713 -0.630266 0.788591
1 17 1.76115 0.780664 1.28393
1 41 -1.59674 1.25757 0.503578
1 40 -1.64565 0.899729 1.43103
1 18 1.0622 1.30148 0.768727
1 28 -0.409526 2.17084 0.757298
1 53 -1.60375 -0.802896 1.66378
1 52 -1.83062 -1.10853 2.59572
1 76 0.282205 -1.37744 1.98308
1 75 1.24448 -1.46237 2.22652
1 48 0.585539 -0.0528389 2.11521
1 39 -1.67089 0.719338 2.41003
1 33 1.41044 0.863749 2.84224
1 29 -0.686577 2.20175 1.71259
1 30 -0.86738 1.6595 2.53879
1 31 0.0768204 1.3873 2.72778
1 32 0.982899 1.61111 2.37219
1 51 -1.40455 -0.877633 3.47685
1 49 0.454523 -0.55827 2.98509
1 34 0.860496 0.342552 3.50583
1 38 -1.30042 1.12308 3.23909
1 50 -0.446617 -0.628562 3.44262
1 37 -0.885818 0.445041 3.86712
1 36 -0.269961 0.0527778 4.54721
1 35 0.715191 -0.0900321 4.39771
ITEM: TIMESTEP
30000
ITEM: NUMBER OF ATOMS
80
ITEM: BOX BOUNDS ff ff ff
-2.0000000000000000e+01 2.0000000000000000e+01
-2.0000000000000000e+01 2.0000000000000000e+01
-4.0000000000000000e+01 4.0000000000000000e+01
ITEM: ATOMS type id x y z
1 4 0.526615 -1.3642 -4.26362
1 5 -0.0242458 -0.556377 -4.10401
1 59 -1.01658 0.0140705 -3.51877
1 60 -1.06023 -0.950073 -3.76257
1 61 -0.570352 -1.41591 -3.0165
1 3 0.794291 -1.77656 -3.38012
1 6 0.815021 -0.941333 -3.7189
1 7 1.48769 -0.803214 -2.9658
1 58 -1.06098 0.618967 -2.70278
1 23 -0.952587 1.38236 -3.46376
1 22 -0.0219758 1.01904 -3.29969
1 62 -0.982793 -1.81305 -2.18763
1 2 1.06993 -1.81897 -2.41812
1 8 1.56246 -0.8729 -1.97678
1 57 -1.3016 -0.0605929 -1.98786
1 69 -0.142096 -0.000268766 -2.3728
1 70 0.827917 -0.193197 -2.24756
1 21 0.617651 0.796092 -2.57
1 24 -0.402726 1.44796 -2.62934
1 80 -0.205725 -1.30339 -1.07293
1 63 -1.53704 -1.6752 -1.38413
1 71 0.688034 -0.285038 -1.25018
1 1 1.74756 -2.02546 -1.71241
1 9 1.84353 -0.717432 -1.01959
1 56 -1.85587 -0.166052 -1.17172
1 68 -0.220133 0.0572618 -1.36851
1 43 -1.17242 1.10047 -1.15565
1 20 0.561595 0.869356 -1.57063
1 25 -0.151181 1.72932 -1.70887
1 26 0.129072 2.13529 -0.841312
1 79 -0.399003 -1.75653 -0.187275
1 64 -1.60753 -1.42827 -0.423865
1 66 -1.1711 -0.875155 0.105201
1 65 -2.14886 -0.993132 0.288778
1 72 0.680761 -0.954382 -0.510472
1 78 -0.435142 -1.40619 0.753909
1 10 2.19315 -1.03741 -0.142591
1 55 -1.99989 -0.0742043 -0.169544
1 67 -0.800327 -0.310994 -0.646379
1 14 1.21281 0.468983 0.180291
1 15 1.56736 1.0246 -0.56745
1 42 -1.78614 1.17861 -0.379079
1 41 -1.78108 1.4686 0.56637
1 44 -1.06707 1.22939 -0.162528
1 45 -0.442758 0.74085 0.450659
1 19 0.326552 0.861052 -0.605028
1 18 0.707614 1.46473 0.0755965
1 16 2.44268 1.3364 -0.204375
1 27 -0.271212 1.91211 0.0358565
1 77 -0.574519 -0.603143 1.3514
1 73 0.4981 -1.11792 0.470445
1 74 0.729135 -1.49107 1.37155
1 11 2.01781 -1.16506 0.844638
1 54 -1.84628 -0.0654816 0.807195
1 53 -2.04087 0.089546 1.76304
1 13 1.50496 0.204408 1.10668
1 12 1.91023 -0.560934 1.62956
1 40 -1.26889 1.2145 1.37809
1 46 -0.0867552 0.502938 1.36168
1 17 1.65841 1.59525 0.36148
1 28 -0.504076 2.17851 0.958683
1 76 0.264707 -0.693859 1.89062
1 75 0.968133 -1.29647 2.30931
1 52 -1.77294 0.126122 2.7314
1 47 0.190779 0.217404 2.2808
1 39 -0.624037 1.22471 2.13502
1 29 -0.434378 2.64211 1.83646
1 30 0.104393 2.15307 2.50314
1 50 -1.10382 -0.785032 4.14658
1 49 -0.303322 -1.0749 3.5953
1 51 -1.80474 -0.269012 3.64708
1 48 0.240761 -0.541548 2.92881
1 38 -0.489407 1.00119 3.10386
1 31 0.751346 1.58366 3.00144
1 35 1.01441 -0.338887 3.92383
1 36 0.0795011 -0.244465 4.22978
1 34 1.75001 -0.0794373 4.53124
1 37 -0.638652 0.266094 3.77653
1 33 2.16342 0.747584 4.1413
1 32 1.55518 1.25632 3.53782
ITEM: TIMESTEP
35000
ITEM: NUMBER OF ATOMS
80
ITEM: BOX BOUNDS ff ff ff
-2.0000000000000000e+01 2.0000000000000000e+01
-2.0000000000000000e+01 2.0000000000000000e+01
-4.0000000000000000e+01 4.0000000000000000e+01
ITEM: ATOMS type id x y z
1 4 -0.0634525 -0.498231 -3.76286
1 60 -1.22264 -0.487639 -4.11472
1 59 -1.13222 0.505264 -4.21828
1 5 0.281744 0.214657 -4.35507
1 3 0.405972 -1.04364 -3.07293
1 2 0.730474 -1.60539 -2.29524
1 61 -0.897281 -0.710338 -3.19985
1 58 -1.16568 0.147506 -3.28677
1 6 0.615657 0.0707693 -3.4265
1 24 -0.409679 1.10961 -2.40207
1 23 -0.119561 0.923454 -3.33966
1 22 0.862399 1.07422 -3.4134
1 21 1.26929 1.50714 -2.60766
1 1 1.49225 -1.94751 -1.75566
1 62 -1.11842 -0.857536 -2.24293
1 57 -1.32124 0.151118 -2.29365
1 7 1.0676 -0.365878 -2.65628
1 8 1.37113 -0.914677 -1.87086
1 25 -0.88641 1.52746 -1.6339
1 20 0.834939 1.4199 -1.71337
1 80 -0.0498001 -2.1393 -1.49023
1 64 -1.8292 -1.1744 -0.446026
1 63 -1.37801 -1.14892 -1.31927
1 9 0.812988 -1.31042 -1.14657
1 56 -1.89705 -0.107264 -1.51072
1 68 -0.610338 -0.274989 -1.32386
1 69 -0.0218437 0.266668 -1.93716
1 71 0.537569 -0.258462 -0.469835
1 70 0.782212 0.0840578 -1.37307
1 43 -1.65292 0.888522 -1.29845
1 19 0.822136 1.05813 -0.772577
1 16 1.83163 1.66247 0.655921
1 26 0.0002601 1.55261 -1.1442
1 79 0.130855 -2.04133 -0.498365
1 65 -1.85449 -0.731411 0.456837
1 72 0.206365 -1.01158 0.117619
1 10 1.21388 -1.02051 -0.278377
1 55 -1.61799 0.0875649 -0.571765
1 54 -1.42218 0.22013 0.408971
1 67 -0.609737 -0.556374 -0.357916
1 42 -2.09811 1.11111 -0.417796
1 41 -1.95875 1.22372 0.574267
1 44 -0.837641 0.783478 -0.731805
1 18 1.03264 0.766715 0.158466
1 17 0.853531 1.50441 0.801459
1 15 2.28201 0.770036 0.631168
1 27 0.0719165 1.75252 -0.172103
1 78 -0.162115 -1.87885 0.44666
1 74 1.21167 -2.08296 1.45104
1 66 -0.855003 -0.70418 0.596455
1 77 -0.23342 -1.402 1.32965
1 73 0.732663 -1.59907 0.729845
1 11 1.63283 -1.02454 0.637109
1 12 2.01498 -1.18273 1.53975
1 53 -1.50922 0.209473 1.41528
1 14 1.62875 0.271229 1.18426
1 45 -0.692435 1.2025 0.157432
1 40 -1.36913 1.44992 1.34458
1 46 -0.31226 0.705504 0.929631
1 28 -0.236673 1.95183 0.753497
1 76 0.388273 -0.873406 1.89411
1 75 0.794987 -1.70673 2.27706
1 52 -1.59593 -0.573676 2.02069
1 48 0.771584 0.465986 2.56112
1 13 1.72865 -0.341552 1.98972
1 39 -0.724929 1.37257 2.09605
1 47 0.153855 0.699512 1.81484
1 29 -0.0442949 1.89326 1.72026
1 51 -0.856187 -0.98001 2.55551
1 50 -0.000373822 -1.34614 2.90348
1 49 0.371449 -0.399811 2.8626
1 38 -0.608603 0.525531 2.59927
1 37 -0.456309 0.276627 3.54662
1 31 0.152281 1.57247 3.68625
1 30 0.0895122 1.76079 2.70485
1 36 -0.290613 -0.312663 4.3468
1 32 0.936279 1.11951 4.08981
1 33 1.67345 0.613037 4.53251
1 35 0.507755 -0.664091 4.80537
1 34 1.41636 -0.286938 4.8653
ITEM: TIMESTEP
40000
ITEM: NUMBER OF ATOMS
80
ITEM: BOX BOUNDS ff ff ff
-2.0000000000000000e+01 2.0000000000000000e+01
-2.0000000000000000e+01 2.0000000000000000e+01
-4.0000000000000000e+01 4.0000000000000000e+01
ITEM: ATOMS type id x y z
1 61 -0.964071 -1.14041 -4.18154
1 60 -1.09758 -0.410079 -4.86957
1 59 -0.7914 0.499653 -4.56577
1 62 -1.05508 -1.42235 -3.22359
1 3 0.333701 -1.07025 -2.51987
1 58 -0.803862 -0.0309727 -3.71767
1 57 -0.918046 0.0139343 -2.72227
1 5 0.357721 0.481086 -3.52107
1 4 -0.0352149 -0.272067 -2.99112
1 24 -0.567056 1.08369 -2.45817
1 23 -0.233759 1.54363 -3.28227
1 6 1.27234 0.795946 -3.7593
1 7 1.82881 0.226508 -3.1654
1 22 0.475107 2.24069 -3.40085
1 63 -1.11865 -1.71247 -2.27133
1 2 0.658402 -1.6141 -1.75646
1 9 0.981947 -0.615921 -1.65604
1 56 -1.0131 -0.464906 -1.84423
1 69 0.572342 0.431515 -1.94625
1 8 1.52188 -0.439949 -2.47973
1 43 -1.90566 0.996157 -1.37516
1 20 0.913972 1.72307 -1.85083
1 25 -0.699016 1.41591 -1.5259
1 21 1.14097 1.82462 -2.80994
1 64 -0.645307 -1.98693 -1.43023
1 1 0.88854 -2.18751 -0.970015
1 80 -0.219734 -0.993058 -1.64962
1 79 0.358846 -1.01078 -0.834116
1 10 1.48985 -0.787546 -0.812113
1 55 -1.61147 -0.461621 -1.03024
1 44 -1.20707 0.637192 -0.753631
1 68 -0.188045 -0.0365145 -1.50622
1 70 1.01225 0.604198 -1.06863
1 42 -1.90338 1.38797 -0.453233
1 19 0.50738 1.53198 -0.953018
1 26 -0.681497 1.89179 -0.656502
1 65 -0.880889 -1.67461 -0.50092
1 66 -1.03413 -0.878983 0.0910603
1 78 0.605549 -1.70649 -0.160448
1 11 1.83482 -0.982688 0.106561
1 54 -1.73822 -0.22196 -0.0788704
1 67 -0.571157 -0.560764 -0.735098
1 71 0.912191 0.0800452 -0.216528
1 72 0.935176 -0.653285 0.484448
1 41 -1.79205 0.94353 0.444667
1 45 -0.460707 0.545509 -0.110318
1 17 1.18439 0.852961 0.741747
1 27 -0.236004 1.88791 0.246826
1 18 0.679568 1.35225 0.028102
1 77 0.015857 -1.95538 0.616533
1 73 0.810059 -0.604089 1.47604
1 12 1.841 -0.98715 1.10344
1 53 -1.54741 -0.0516858 0.891062
1 40 -1.53322 0.94495 1.40963
1 46 0.0613738 0.536096 0.73385
1 16 1.40681 0.743084 1.71631
1 28 0.31126 1.56708 1.01465
1 76 -0.354105 -2.10704 1.54074
1 75 -0.708867 -1.40628 2.16124
1 51 -1.20002 -0.682017 2.61518
1 74 0.149504 -0.87449 2.17522
1 13 2.23509 -1.5084 1.86602
1 14 1.79546 -0.911273 2.54222
1 52 -1.03402 -0.299982 1.70156
1 48 0.307649 0.299446 2.62205
1 47 0.412584 0.608907 1.68058
1 15 1.38166 -0.0327969 2.34376
1 39 -1.33827 1.22569 2.33834
1 29 0.724882 1.53497 1.91979
1 50 -0.745026 -0.962727 3.44289
1 49 -0.00716579 -0.322115 3.34181
1 38 -1.12954 0.828997 3.23081
1 30 0.277685 1.39299 2.80023
1 37 -0.967991 0.148862 3.96764
1 36 -0.848966 -0.218214 4.89718
1 31 0.359956 1.0825 3.73614
1 32 1.04398 0.985631 4.47015
1 35 -0.0641475 -0.49766 5.46819
1 34 0.765799 -0.109637 5.89977
1 33 1.29548 0.397536 5.218
ITEM: TIMESTEP
45000
ITEM: NUMBER OF ATOMS
80
ITEM: BOX BOUNDS ff ff ff
-2.0000000000000000e+01 2.0000000000000000e+01
-2.0000000000000000e+01 2.0000000000000000e+01
-4.0000000000000000e+01 4.0000000000000000e+01
ITEM: ATOMS type id x y z
1 60 -1.0837 -0.721403 -5.2388
1 59 -0.95565 0.247859 -5.45142
1 61 -1.07507 -0.751785 -4.2378
1 58 -1.18314 0.095277 -4.47781
1 5 0.0170242 -0.00524067 -4.21209
1 6 0.664125 0.749001 -4.30794
1 62 -1.37151 -1.05853 -3.34502
1 57 -1.21628 0.150013 -3.4742
1 4 0.150433 -0.78304 -3.5947
1 7 1.33201 0.378184 -3.66245
1 23 0.211439 1.82827 -2.76146
1 8 1.55456 0.127767 -2.74005
1 22 0.860348 1.97884 -3.51328
1 63 -1.67197 -1.56787 -2.54628
1 1 2.2957 -1.58096 -1.78683
1 3 0.745619 -1.03379 -2.81384
1 2 1.59427 -1.10672 -2.28258
1 56 -0.828193 0.0051959 -2.55181
1 55 -1.47721 -0.166515 -1.80274
1 9 1.88108 -0.0446859 -1.83358
1 24 -0.0606226 1.12188 -2.11788
1 21 1.16901 1.68015 -2.60249
1 64 -1.35355 -2.0306 -1.7152
1 65 -1.31927 -2.21144 -0.720705
1 80 0.131078 -1.3105 -1.76109
1 79 0.206087 -1.16162 -0.759874
1 54 -1.92845 -0.510351 -0.971636
1 69 -0.136645 -0.372143 -1.72005
1 68 -0.462933 -0.169334 -0.795752
1 70 0.539439 0.0159528 -1.10206
1 10 1.84279 -0.298518 -0.850173
1 43 -1.68089 1.16333 -0.544347
1 25 -0.253574 0.761665 -1.2186
1 26 -0.120313 0.909786 -0.245804
1 19 0.844179 1.30032 -0.723308
1 42 -2.13457 2.03578 -0.341881
1 20 1.2257 1.53605 -1.61956
1 66 -0.996726 -1.79223 0.149105
1 78 -0.0110796 -1.13675 0.230547
1 53 -1.88834 -0.432218 0.0222078
1 67 -0.866441 -0.869563 -0.214564
1 71 0.398636 0.109696 -0.109455
1 11 1.8937 -0.528155 0.123065
1 44 -1.31311 0.890251 0.336674
1 27 0.143995 1.18891 0.660563
1 18 1.28589 1.19731 0.181124
1 41 -1.64515 2.02311 0.524725
1 77 -0.148685 -1.56232 1.14899
1 73 0.437625 -0.565892 1.7515
1 12 1.75186 -0.683815 1.10619
1 52 -1.66881 -0.569625 0.988607
1 72 0.452132 -0.345176 0.776459
1 40 -1.45331 1.47998 1.34922
1 45 -0.877245 0.46973 1.12103
1 28 0.529597 1.53158 1.50337
1 17 1.59304 0.845357 1.03922
1 76 -0.263441 -2.29354 1.81124
1 75 0.581524 -1.91354 2.17111
1 74 1.00661 -1.04596 2.41202
1 13 2.00532 -0.689253 2.07749
1 51 -0.825638 -0.603986 1.53633
1 46 -0.0652273 0.30915 1.68763
1 47 0.927591 0.383117 1.83129
1 39 -1.85481 0.914375 2.07844
1 29 0.38773 1.07726 2.37899
1 16 1.91527 0.686763 1.98367
1 14 2.0583 -0.649943 3.07624
1 50 -0.932099 -0.17566 2.4484
1 49 -0.103103 -0.0694304 2.98956
1 15 2.14831 0.337458 2.8836
1 48 0.856927 0.0228714 2.76803
1 38 -1.69839 0.89577 3.06112
1 30 0.331729 1.10425 3.37275
1 36 -0.607304 -0.166235 4.26348
1 32 0.749604 0.506946 5.11309
1 37 -0.95596 0.391365 3.50108
1 31 0.247456 0.685075 4.27785
1 35 -0.725795 -0.143651 5.23986
1 33 0.559084 -0.006213 5.9354
1 34 -0.400275 0.187966 6.12818
ITEM: TIMESTEP
50000
ITEM: NUMBER OF ATOMS
80
ITEM: BOX BOUNDS ff ff ff
-2.0000000000000000e+01 2.0000000000000000e+01
-2.0000000000000000e+01 2.0000000000000000e+01
-4.0000000000000000e+01 4.0000000000000000e+01
ITEM: ATOMS type id x y z
1 59 -0.594097 0.157547 -4.80921
1 5 0.553109 -0.137179 -4.48952
1 60 -0.56288 -0.788157 -5.09423
1 61 -0.207664 -0.988228 -4.19495
1 4 0.643899 -1.07071 -4.80982
1 58 -1.26826 0.763381 -4.40123
1 6 0.854842 0.700696 -4.04535
1 62 -0.109654 -1.32984 -3.24485
1 3 0.960255 -1.3156 -3.89322
1 57 -1.1987 0.281973 -3.53221
1 56 -1.12113 0.0412497 -2.56717
1 7 1.23858 0.745909 -3.12717
1 23 -0.603995 0.930671 -2.64792
1 22 -0.218252 1.45013 -3.41096
1 21 0.42065 1.86543 -2.76034
1 63 -0.242411 -1.81046 -2.37435
1 80 0.561439 -0.934456 -1.10949
1 1 1.44046 -1.15698 -2.01306
1 2 1.04547 -1.07853 -2.91883
1 55 -1.5286 0.308208 -1.68677
1 24 -0.436381 0.381578 -1.83698
1 8 1.43049 0.107565 -2.3897
1 20 0.905048 1.32757 -2.07323
1 64 -0.951918 -2.05235 -1.71748
1 65 -1.35332 -2.39878 -0.850235
1 68 -1.45456 -0.516985 -1.07526
1 69 -0.455453 -0.468667 -1.15207
1 79 0.632034 -1.5938 -0.347145
1 54 -2.11139 0.428983 -0.897764
1 9 1.00401 0.282129 -1.51456
1 43 -1.06039 1.16661 -0.0222567
1 42 -1.4749 1.46323 -0.888648
1 25 -0.0501723 0.578075 -0.941152
1 19 1.63676 1.09381 -1.43488
1 66 -1.19583 -1.88309 -0.00701385
1 67 -1.76968 -1.19398 -0.428199
1 78 0.766479 -2.1161 0.485409
1 53 -1.76174 0.171786 -0.00438534
1 70 0.244105 -0.304409 -0.43182
1 71 0.487815 -0.160417 0.529438
1 10 1.41555 -0.0983057 -0.683571
1 11 1.88413 -0.733143 -0.0804424
1 41 -1.62959 1.70429 0.0824406
1 44 -0.45384 0.427866 0.306332
1 26 0.42369 1.30052 -0.434589
1 27 0.55917 1.71569 0.463995
1 18 1.48757 1.00623 -0.452668
1 77 0.207778 -1.66389 1.17531
1 51 -1.35812 -0.202029 1.7138
1 12 2.21866 -0.854106 0.851287
1 52 -1.17059 -0.183077 0.728956
1 72 1.29551 -0.182062 1.0827
1 40 -1.53179 1.53305 1.06392
1 45 0.0238163 0.346088 1.17639
1 28 0.345571 1.63959 1.42495
1 17 1.66287 0.931227 0.524408
1 76 -0.492312 -1.77748 1.86789
1 74 0.40604 -0.824524 2.7232
1 73 0.889513 -0.540584 1.89939
1 13 2.10838 -0.415811 1.73912
1 14 1.81065 -0.16353 2.66361
1 50 -0.88801 -0.471847 2.55821
1 46 0.0127048 0.561071 2.1378
1 15 1.38896 0.70365 2.40825
1 39 -1.58069 1.32814 2.02887