ITEM: TIMESTEP
0
ITEM: NUMBER OF ATOMS
80
ITEM: BOX BOUNDS ff ff ff
-1.0000000000000000e+01 1.0000000000000000e+01
-1.0000000000000000e+01 1.0000000000000000e+01
-5.0000000000000000e+01 5.0000000000000000e+01
ITEM: ATOMS type id x y z
1 69 -3.16955 -3.35875 -0.648425
1 70 -2.92166 -3.48107 -0.317396
1 72 -2.42527 -3.68646 -0.0118263
1 73 -2.1778 -3.77099 -0.568829
1 74 -1.93131 -3.84435 -0.248517
1 76 -1.44201 -3.96031 -0.301562
1 80 -0.47803 -4.085 -0.596936
1 64 -4.37386 -2.52462 -0.393429
1 65 -4.14107 -2.72297 -0.228425
1 67 -3.66117 -3.07138 -0.34613
1 68 -3.41634 -3.2224 -0.611913
1 59 -5.41222 -1.28215 -0.253526
1 60 -5.22624 -1.56406 -0.428295
1 61 -5.02787 -1.82941 -0.957158
1 62 -4.81868 -2.07798 -0.716046
1 56 -5.87977 -0.341901 -0.088372
1 52 -6.23383 1.09976 -0.0922737
1 53 -6.17862 0.722736 -0.111947
1 2 6.10013 0.355282 -0.0717076
1 3 6.17851 0.722143 -0.0629778
1 50 -6.26996 1.87768 -0.395057
1 51 -6.26466 1.48532 -0.359713
1 6 6.26997 1.87705 -0.0348432
1 48 -6.20022 2.6751 -0.353784
1 7 6.24881 2.27431 -0.0153736
1 8 6.20031 2.67447 -0.837081
1 45 -5.88504 3.87129 -0.762589
1 10 6.01891 3.47489 -0.955271
1 12 5.72289 4.26036 -0.100827
1 41 -5.06554 5.36989 -0.0145083
1 42 -5.31235 5.01265 -0.640086
1 13 5.53191 4.64163 -0.0799878
1 14 5.31272 5.01207 -0.589197
1 15 5.06595 5.36933 -0.377146
1 38 -4.16899 6.33952 -0.384462
1 19 3.82291 6.62101 -0.0358324
1 36 -3.45442 6.87935 -0.128019
1 35 -3.06709 7.11145 -0.15525
1 21 3.06772 7.1111 -0.656768
1 20 3.45502 6.87896 -0.453413
1 30 -0.915254 7.83388 -0.0755936
1 26 0.915977 7.83377 -0.881388
1 27 0.459509 7.8834 -0.218347
1 28 0.000365982 7.9 -0.815824
1 71 -2.67337 -3.59006 0.364029
1 75 -1.68601 -3.90724 0.055985
1 77 -1.19933 -4.00414 0.528027
1 78 -0.957883 -4.03925 0.220752
1 79 -0.717522 -4.06609 0.47652
1 63 -4.60019 -2.30969 0.664595
1 66 -3.90311 -2.90508 0.804348
1 57 -5.74059 -0.67042 0.862604
1 58 -5.5842 -0.984083 0.546904
1 54 -6.10028 0.355857 0.65023
1 55 -6.00018 0.000555938 0.19117
1 1 6 0 0.990403
1 4 6.23376 1.09915 0.0307284
1 5 6.26463 1.4847 0.259797
1 47 -6.12369 3.07604 0.272497
1 49 -6.24875 2.27494 0.205573
1 9 6.12383 3.0754 0.494996
1 44 -5.72261 4.26098 0.962331
1 46 -6.01872 3.47553 0.384527
1 11 5.88528 3.87066 0.0514697
1 43 -5.53158 4.64223 0.470128
1 39 -4.49269 6.03555 0.203044
1 40 -4.79196 5.71162 0.482214
1 37 -3.82234 6.62144 0.449381
1 18 4.16953 6.33906 0.945315
1 16 4.79242 5.71109 0.614466
1 17 4.49319 6.03505 0.658247
1 33 -2.24245 7.4918 0.495494
1 34 -2.66237 7.31608 0.0564417
1 31 -1.36641 7.75164 0.673984
1 32 -1.80965 7.63734 0.832931
1 24 1.81035 7.63713 0.494368
1 25 1.36713 7.75148 0.4468
1 22 2.66302 7.31578 0.609796
1 23 2.24313 7.49155 0.978883
1 29 -0.458779 7.88345 0.217407
ITEM: TIMESTEP
5000
ITEM: NUMBER OF ATOMS
80
ITEM: BOX BOUNDS ff ff ff
-1.0000000000000000e+01 1.0000000000000000e+01
-1.0000000000000000e+01 1.0000000000000000e+01
-5.0000000000000000e+01 5.0000000000000000e+01
ITEM: ATOMS type id x y z
1 60 -1.20109 -0.518907 -2.41258
1 71 -0.0443129 -0.68455 -2.86864
1 61 -0.930837 0.371445 -2.79233
1 72 0.881941 -0.975192 -2.59608
1 70 -0.242789 -1.38886 -2.1765
1 59 -1.64229 -0.790381 -1.5752
1 62 -0.712532 -0.307367 -2.10323
1 63 -0.469805 -0.889025 -1.31978
1 73 0.456462 -1.23059 -1.73021
1 48 -1.47859 0.179017 -1.57106
1 19 0.251342 0.194922 -2.1332
1 20 0.0321483 1.0512 -2.6052
1 18 0.443604 -0.103766 -1.20281
1 43 -1.47393 1.39957 -1.21633
1 44 -0.843153 0.94907 -1.8565
1 21 0.487778 1.62016 -1.92599
1 66 -0.803828 -1.70143 -1.0825
1 69 -0.502246 -2.03014 -1.45842
1 74 0.258664 -1.31637 -0.747315
1 80 1.54522 -1.19964 -1.45482
1 79 1.31899 -1.30467 -0.481912
1 58 -1.83096 -0.638662 -0.609777
1 64 -0.92032 -1.11035 -0.461405
1 6 0.854653 -0.446944 -0.101403
1 4 1.50399 -0.0125271 -0.235739
1 7 1.8215 -0.319587 0.0920754
1 47 -1.54491 0.437055 -0.608213
1 49 -0.727342 0.0951542 -0.937516
1 50 -0.315443 -0.219269 -0.080522
1 46 -0.74486 0.850587 -0.167812
1 15 0.188755 0.596832 -0.273827
1 17 0.572874 0.866215 -1.01788
1 12 1.86818 0.84153 -1.17452
1 13 1.43118 1.23149 -0.37128
1 11 2.0318 0.786604 -0.179234
1 42 -1.59053 1.46113 -0.220521
1 45 -0.354792 1.18292 -1.02484
1 27 -0.340356 2.09882 -0.401793
1 26 0.0317169 1.45252 0.261065
1 22 0.708001 2.12046 -1.09431
1 16 1.0582 1.10756 -0.184209
1 68 -0.911621 -2.06127 -0.555544
1 78 1.00842 -1.39548 0.458713
1 75 0.0265636 -1.27236 0.225061
1 57 -1.48561 -0.239264 0.234602
1 65 -1.69692 -1.73573 -0.640015
1 67 -0.85066 -1.10056 -0.282173
1 51 -0.262546 -0.18872 0.933439
1 3 0.651374 -0.372879 0.140868
1 2 0.758976 -0.372365 1.13314
1 5 1.37625 -0.253869 0.721369
1 8 2.05006 -0.503887 1.05412
1 25 0.167992 0.746321 0.962435
1 14 0.992285 0.611327 0.292066
1 10 2.15613 0.867224 0.811673
1 41 -1.51298 1.00941 0.678469
1 28 -0.565865 1.72835 0.497141
1 24 0.72679 1.52865 0.697039
1 23 0.685037 2.14041 -0.100373
1 31 -1.20229 1.95418 1.10295
1 30 -0.357842 2.32181 0.70718
1 77 0.778244 -1.45277 1.4369
1 76 -0.189661 -1.38073 1.1998
1 56 -1.40603 -0.90301 0.995415
1 52 -0.0504297 -0.325128 1.90068
1 38 -1.55633 0.429031 1.35014
1 40 -1.07173 0.701198 1.52379
1 37 -0.638428 0.625753 1.6897
1 36 0.276391 0.777518 2.07444
1 1 1.13236 -0.402007 2.0575
1 9 1.71445 0.310001 1.50706
1 32 -1.26395 1.79276 2.08223
1 29 -0.239438 1.6433 1.43136
1 55 -1.07799 -0.843721 1.95363
1 54 -0.681308 -0.562243 2.82703
1 39 -1.77495 0.966265 2.17756
1 34 -0.132843 0.93856 3.41577
1 53 0.280606 -0.29745 2.84875
1 35 0.746259 0.706001 2.95799
1 33 -0.726283 1.51517 2.87068
ITEM: TIMESTEP
10000
ITEM: NUMBER OF ATOMS
80
ITEM: BOX BOUNDS ff ff ff
-1.0000000000000000e+01 1.0000000000000000e+01
-1.0000000000000000e+01 1.0000000000000000e+01
-5.0000000000000000e+01 5.0000000000000000e+01
ITEM: ATOMS type id x y z
1 71 0.392399 -0.562301 -4.10893
1 61 -1.25088 0.207653 -3.71283
1 19 0.602279 0.853825 -3.69311
1 69 0.302171 -1.16293 -2.3692
1 60 -1.35495 0.146044 -2.72559
1 65 -1.0349 -0.818252 -3.40457
1 63 -0.40098 -0.320216 -2.66975
1 66 -0.560663 -0.667356 -2.53949
1 70 0.00120201 -1.00719 -3.30097
1 72 0.911534 -0.664535 -3.2496
1 73 0.577429 -0.123753 -2.47069
1 62 -0.259798 0.0832101 -3.57806
1 20 -0.0170367 1.13619 -2.94624
1 18 1.25321 0.301988 -3.17199
1 21 0.493508 1.14578 -2.09188
1 68 -0.155095 -1.39634 -1.50553
1 59 -1.69989 -0.333561 -1.91556
1 64 -0.774032 -1.25774 -2.55424
1 67 -0.719543 -0.569118 -1.55432
1 80 0.958733 -1.07972 -1.35943
1 74 0.282992 -0.278733 -1.52173
1 47 -1.53298 0.824351 -1.9663
1 46 -1.17275 0.936365 -1.04999
1 48 -0.580142 0.598665 -1.78945
1 45 -0.317812 0.968337 -1.5935
1 16 1.03887 0.246588 -1.26105
1 17 1.36068 0.450332 -2.18431
1 44 -0.316168 1.70439 -0.94156
1 22 0.594547 1.2069 -1.09361
1 79 1.33773 -1.74985 -0.711356
1 58 -1.55118 -0.488371 -0.94339
1 57 -1.52688 -0.784733 -0.0231546
1 75 0.289968 -0.650276 -0.599652
1 49 -0.420858 0.306204 -0.845665
1 26 -0.400589 0.868094 0.1133
1 15 0.523081 0.460876 -0.443483
1 12 0.479891 0.348479 -0.299392
1 43 -1.0769 1.2124 -0.489586
1 23 0.463084 1.64822 -0.20486
1 78 0.943451 -1.83861 0.181059
1 56 -1.37642 -1.13508 0.906259
1 76 -0.114588 -1.06552 0.2108
1 51 -0.250142 -0.228432 1.06008
1 50 -0.390596 -0.0588278 0.0956302
1 3 0.854323 -0.804035 0.539192
1 6 0.891433 -0.721944 0.277504
1 4 1.83954 -0.664631 0.446428
1 7 1.59492 -0.0888223 0.647412
1 42 -1.5759 0.552214 0.086616
1 41 -1.20776 0.392271 0.990504
1 25 -0.330826 1.65987 0.726583
1 27 -0.163787 0.95432 1.07306
1 14 0.522402 0.208282 0.518699
1 11 0.564174 0.224124 0.687463
1 13 1.12868 0.932722 0.181879
1 24 0.662518 1.56701 0.778979
1 55 -1.29457 -0.97064 1.90121
1 77 0.243925 -1.72602 0.895199
1 52 -0.115957 -1.00969 1.68076
1 40 -1.0355 0.502091 1.97285
1 2 0.823297 -0.596353 1.51642
1 5 1.21947 -0.787111 1.21997
1 38 -0.179373 -0.128324 2.33919
1 10 0.525478 0.374396 1.67955
1 8 1.28666 0.488279 1.41547
1 28 0.319863 1.41735 1.80069
1 37 0.0659717 -0.246283 3.3001
1 54 -1.04763 -1.46812 2.72641
1 53 -0.0585476 -1.35184 2.60651
1 1 1.1124 -0.144671 2.35327
1 39 -0.960582 0.146233 2.88004
1 31 -0.938544 1.25582 3.20447
1 30 -0.117643 0.751975 2.91806
1 9 1.05955 0.965507 2.26934
1 29 0.469551 1.54104 2.76956
1 36 0.80526 -0.263444 3.97151
1 32 -0.663191 0.769973 4.03049
1 35 0.353946 -0.732719 4.7182
1 34 -0.0865726 -0.310527 5.51636
1 33 -0.372457 0.465432 4.94723
ITEM: TIMESTEP
15000
ITEM: NUMBER OF ATOMS
80
ITEM: BOX BOUNDS ff ff ff
-1.0000000000000000e+01 1.0000000000000000e+01
-1.0000000000000000e+01 1.0000000000000000e+01
-5.0000000000000000e+01 5.0000000000000000e+01
ITEM: ATOMS type id x y z
1 63 -0.456354 -0.855351 -3.95991
1 64 -1.20644 -0.956024 -4.61574
1 69 0.79938 -1.25795 -3.44286
1 65 -1.08126 -0.0276057 -4.23913
1 62 -0.00138117 0.000124165 -4.16873
1 71 0.936654 -0.119847 -4.41597
1 70 0.589368 -1.06226 -4.40197
1 72 0.825889 -0.310527 -3.4445
1 61 -0.611273 0.633729 -3.68174
1 19 0.613379 1.30231 -4.12841
1 18 1.14334 0.59384 -3.67607
1 20 0.162051 1.8676 -3.43518
1 67 -0.65844 -1.51642 -3.05725
1 68 0.249858 -1.46159 -2.64069
1 66 -0.957573 -0.635499 -3.43796
1 73 0.00584884 -0.482263 -2.90772
1 17 0.998504 0.51211 -2.68295
1 60 -1.30387 0.582214 -2.96411
1 47 -0.456243 0.517161 -2.168
1 45 0.239564 0.231859 -1.89284
1 21 0.13993 1.35127 -2.58242
1 75 -0.540191 -0.957107 -1.16272
1 74 -0.580215 -0.586004 -2.10065
1 80 0.830242 -0.878466 -1.64395
1 16 1.28389 0.063161 -1.83156
1 59 -1.55817 0.00276192 -2.16145
1 43 -0.762826 1.08165 -1.2245
1 46 -0.252061 0.841067 -1.26013
1 44 -0.619208 0.705017 -2.13964
1 48 0.145548 0.0800475 -1.52575
1 22 0.671861 1.21973 -1.73894
1 79 0.709343 -1.03895 -0.662388
1 58 -1.46828 0.00360664 -1.1539
1 57 -1.47075 -0.422656 -0.256879
1 76 -0.305811 -0.614894 -0.246541
1 42 -0.694915 1.2129 -0.224358
1 49 -0.0331249 0.273373 -0.559536
1 15 1.33828 -0.252053 -0.886718
1 12 1.42698 0.574861 0.0100038
1 23 0.740309 1.05279 -0.758757
1 78 0.436331 -1.46821 0.20059
1 56 -1.29209 -0.507197 0.700341
1 77 0.0892429 -0.648605 0.659029
1 4 1.21546 -0.823087 0.390045
1 41 -1.1902 0.747451 0.517394
1 50 -0.47368 0.144508 0.320767
1 14 0.853267 0.115281 -0.0933308
1 11 0.537948 0.205227 0.249876
1 10 0.525755 0.134122 1.25599
1 13 1.00042 0.314408 0.876216
1 26 -0.579397 1.36957 1.24109
1 24 0.601255 1.41883 0.158634
1 55 -0.904555 -0.947922 1.51751
1 3 0.941624 -0.748521 1.35007
1 52 -0.307859 -0.756591 1.95627
1 2 0.686004 -0.745804 2.30551
1 5 1.95048 -0.988876 1.05356
1 6 1.89601 -0.611161 1.97583
1 40 -1.36763 0.292448 1.39929
1 51 -0.455615 -0.00575918 1.31147
1 9 0.56331 0.512719 2.16723
1 27 -0.392813 0.863828 2.08597
1 25 0.298755 1.80103 1.02523
1 54 -0.713976 -0.873506 2.4826
1 53 0.0425537 -1.54193 2.49091
1 39 -1.12959 0.189623 2.36957
1 38 -0.73678 -0.0430686 3.24351
1 1 0.093021 -0.700911 3.10152
1 7 1.6454 -0.228967 2.85584
1 8 0.716683 0.0848257 3.05792
1 28 -0.130971 1.0064 3.04047
1 37 -0.494232 -0.270519 4.1893
1 30 -1.1779 0.760393 4.1265
1 29 -0.175135 0.675326 3.98106
1 31 -1.36965 0.401774 5.03147
1 36 -0.0893927 -0.266599 5.10216
1 32 -0.673496 0.42833 5.73228
1 35 0.306584 -0.676153 5.95257
1 33 -0.0417069 0.471171 6.48737
1 34 0.452015 -0.323276 6.87319
ITEM: TIMESTEP
20000
ITEM: NUMBER OF ATOMS
80
ITEM: BOX BOUNDS ff ff ff
-1.0000000000000000e+01 1.0000000000000000e+01
-1.0000000000000000e+01 1.0000000000000000e+01
-5.0000000000000000e+01 5.0000000000000000e+01
ITEM: ATOMS type id x y z
1 63 -0.356723 0.15806 -6.14067
1 64 -0.179801 -0.803284 -6.32055
1 62 -0.56834 0.841615 -5.41571
1 66 -0.519295 -0.876713 -4.45064
1 65 -0.0496991 -0.761019 -5.33583
1 71 0.131853 0.191361 -4.89476
1 70 0.97145 -0.291181 -5.06639
1 61 -0.567419 1.09302 -4.43594
1 67 -0.384238 -1.29678 -3.56064
1 68 0.53898 -1.26954 -3.92941
1 69 1.17143 -0.523911 -4.12866
1 72 0.0809331 -0.125209 -3.95205
1 60 -1.0283 0.490854 -3.79646
1 19 0.262277 0.832998 -3.57092
1 18 1.17228 0.413359 -3.56316
1 59 -1.03452 -0.000172704 -2.92358
1 73 0.0380125 -0.536566 -3.01189
1 80 0.877421 -0.568431 -2.3632
1 17 1.08727 0.553265 -2.57221
1 20 -0.136038 1.5557 -2.99481
1 21 -0.0110488 1.65149 -2.02241
1 74 -0.243058 -1.06687 -2.22837
1 58 -1.05106 -0.538913 -2.07871
1 79 0.981028 -0.774819 -1.39931
1 47 -0.531276 0.349984 -1.75853
1 48 0.0315409 -0.183039 -1.12917
1 44 -0.648955 0.415224 -1.52079
1 45 0.00106074 -0.289329 -1.20921
1 16 1.15114 0.243368 -1.6387
1 22 0.458033 1.08795 -1.34328
1 75 -0.585992 -1.33783 -1.33252
1 57 -1.13788 -0.424146 -1.0664
1 56 -1.10219 -0.317699 -0.0773788
1 49 -0.104436 0.23718 -0.242459
1 78 0.68518 -0.936687 -0.458448
1 42 -1.3606 1.0682 0.0476682
1 46 -0.502497 0.463177 -0.764958
1 15 1.18123 0.0232341 -0.672021
1 43 -1.22265 0.959672 -0.930409
1 23 1.28511 1.15907 -0.786917
1 77 0.22959 -1.1874 0.392896
1 55 -1.07112 -0.764505 0.81366
1 76 -0.418809 -1.17979 -0.352167
1 50 -0.338861 0.026706 0.721174
1 41 -1.26694 0.627186 0.957075
1 24 0.619315 1.07184 -0.0562222
1 14 1.04102 -0.076754 0.319814
1 11 1.60366 0.589793 0.93809
1 25 -0.129845 1.19781 0.577306
1 54 -0.956495 -1.0574 1.75597
1 3 0.128925 -1.14874 1.80894
1 4 0.808412 -0.76173 1.17721
1 5 0.883631 -0.204637 2.0121
1 40 -1.18142 0.103961 1.8172
1 51 -0.12668 0.0171855 1.71149
1 13 0.616567 0.529427 0.979744
1 10 0.659789 0.465291 1.22812
1 12 1.12359 1.30891 1.40959
1 26 -0.414975 0.959378 1.5141
1 2 0.495357 -0.894916 2.71293
1 53 -0.6231 -1.19647 2.68256
1 52 -0.282667 -0.239703 2.6647
1 39 -1.29036 0.304365 2.78639
1 27 -0.243541 0.788279 2.47512
1 6 1.04726 -0.104657 2.99968
1 9 0.623263 1.0853 2.01779
1 8 0.854279 1.04939 3.00023
1 38 -0.963222 -0.249903 3.53352
1 1 0.359275 -0.516647 3.63214
1 28 -0.020479 0.463603 3.40799
1 7 0.935784 0.44994 3.81729
1 36 0.0546775 -1.10647 4.83454
1 37 -0.618134 -0.966225 4.11197
1 30 -0.5398 0.00898987 5.24424
1 29 -0.450652 0.243577 4.27332
1 31 -0.461089 -0.074826 6.22973
1 35 0.407553 -0.668026 5.6484
1 34 0.134976 -0.367437 6.56246
1 32 -0.32307 0.00219642 7.21089
1 33 0.313509 0.607873 6.73813
ITEM: TIMESTEP
25000
ITEM: NUMBER OF ATOMS
80
ITEM: BOX BOUNDS ff ff ff
-1.0000000000000000e+01 1.0000000000000000e+01
-1.0000000000000000e+01 1.0000000000000000e+01
-5.0000000000000000e+01 5.0000000000000000e+01
ITEM: ATOMS type id x y z
1 64 -0.638348 -0.486405 -6.78153
1 63 -0.0717398 0.179098 -6.31154
1 65 -0.657024 -0.637206 -5.77888
1 69 0.756634 -0.566108 -5.71855
1 62 -0.288971 0.968625 -5.74078
1 70 0.788276 0.426655 -5.61077
1 66 -0.745877 -1.09483 -4.8922
1 68 0.222698 -0.663992 -4.87059
1 61 -1.01661 0.737679 -5.09012
1 71 0.851391 0.575113 -4.63768
1 67 -0.148505 -1.17751 -4.08537
1 59 -1.24508 -0.313491 -3.46306
1 72 0.515392 -0.0903337 -3.96605
1 60 -1.20454 0.052239 -4.38648
1 18 -0.151009 0.661511 -4.29071
1 19 -0.882603 0.828686 -3.61459
1 58 -1.30491 -0.354235 -2.46524
1 74 -0.424167 -0.720681 -2.34017
1 73 0.0637296 -0.509108 -3.17929
1 80 0.874622 -0.897702 -2.11854
1 21 0.00559913 1.21384 -2.01983
1 17 0.521621 0.921524 -3.62715
1 16 0.462254 0.595301 -2.70067
1 20 -0.61576 0.771255 -2.6576
1 75 -0.388219 -1.12764 -1.44758
1 76 0.460211 -1.22218 -0.935772
1 57 -1.34405 -0.752569 -1.55353
1 47 -0.00401612 -0.146649 -1.53197
1 79 1.21741 -0.391776 -1.32326
1 44 -0.0149332 0.048424 -1.65174
1 15 0.892675 0.586078 -1.78921
1 22 0.0593672 1.54029 -1.08107
1 77 1.08631 -1.00965 -0.186745
1 56 -0.984711 -0.661387 -0.633035
1 45 -0.0913678 0.216495 -0.687656
1 78 1.56041 -0.157325 -0.408673
1 42 -1.02728 0.385139 -0.0471115
1 46 -0.863639 0.328896 -1.32226
1 43 -0.704075 0.354855 -0.990412
1 48 0.31496 -0.318345 -0.602988
1 14 0.980113 0.854351 -0.838983
1 23 0.207703 1.13032 -0.169715
1 55 -0.589856 -0.535966 0.275053
1 49 0.465185 -0.185497 0.373524
1 3 1.15693 -0.680865 0.98361
1 41 -1.12313 0.219999 0.930776
1 24 0.251937 0.950317 0.804642
1 13 1.17824 0.722098 0.136361
1 2 0.404782 -1.30768 0.936878
1 54 -0.737846 -0.565981 1.26115
1 50 0.298763 -0.236118 1.36054
1 51 -0.0115235 -0.508796 2.28273
1 4 1.04027 -0.921527 1.9375
1 40 -1.46454 0.241725 1.87304
1 12 1.56758 0.527715 1.03833
1 25 -0.206685 0.670792 1.64515
1 11 1.01762 0.817476 1.82526
1 1 0.305233 -1.47634 1.92808
1 53 -0.824702 -0.726935 2.24603
1 52 -0.393903 -0.840314 3.13066
1 5 0.802397 -0.823326 2.89673
1 39 -1.09177 0.0312697 2.77527
1 26 0.178657 0.397528 2.52707
1 10 0.47139 1.33576 2.45413
1 6 0.72805 -0.655543 3.87848
1 27 0.0957748 0.580468 3.5181
1 38 -1.19538 -0.287155 3.72275
1 28 -0.263044 0.656872 4.44717
1 9 0.695921 1.50677 3.41265
1 37 -0.76154 -0.749781 4.49789
1 36 -0.0473796 -0.647337 5.19667
1 29 -0.30798 0.905339 5.41
1 7 0.82274 0.181749 4.41912
1 8 1.27135 0.98536 4.03461
1 30 -0.778271 0.629829 6.2532
1 35 0.222165 0.115304 5.76237
1 34 0.284526 0.248646 6.73657
1 31 -0.741155 -0.264351 6.67506
1 33 0.546561 0.0646293 7.69114
1 32 -0.291332 -0.453315 7.54111
ITEM: TIMESTEP
30000
ITEM: NUMBER OF ATOMS
80
ITEM: BOX BOUNDS ff ff ff
-1.0000000000000000e+01 1.0000000000000000e+01
-1.0000000000000000e+01 1.0000000000000000e+01
-5.0000000000000000e+01 5.0000000000000000e+01
ITEM: ATOMS type id x y z
1 64 0.0013509 -0.139021 -7.73899
1 65 -0.482198 -0.775477 -7.13566
1 62 -0.889444 -0.16806 -6.67629
1 63 -0.754144 0.459747 -7.44506
1 69 0.896784 0.0970517 -7.17078
1 61 -1.00334 -0.569781 -5.75982
1 66 -0.00704806 -1.39024 -6.51413
1 67 0.145411 -0.525875 -6.06216
1 70 1.16793 -0.37282 -6.31958
1 68 0.123567 0.338875 -6.55773
1 60 -1.17133 -0.0961533 -4.89001
1 72 0.845531 -0.97716 -4.52679
1 71 1.1828 -0.859845 -5.45351
1 59 -1.44011 0.246202 -3.99939
1 73 0.436532 -0.502109 -3.74231
1 19 0.244442 0.906939 -3.50462
1 18 0.593438 0.675355 -4.40068
1 17 1.2085 0.237759 -3.76478
1 57 -1.08873 -0.599528 -2.33422
1 58 -1.01203 0.0350131 -3.11058
1 74 -0.108367 -0.643676 -2.94239
1 80 0.974476 -0.281566 -2.22262
1 20 -0.174167 1.12754 -2.62648
1 16 0.774187 0.582964 -2.93067
1 76 -0.512813 -1.46469 -1.2125
1 56 -1.06607 -0.673286 -1.35284
1 75 -0.10233 -1.11493 -2.06146
1 79 1.26837 -0.605542 -1.33291
1 47 0.0963324 -0.389343 -0.740964
1 45 -0.826611 0.651389 -1.92252
1 46 -0.0879256 0.0163334 -1.63967
1 15 0.838082 0.630603 -1.93649
1 14 0.850457 0.22143 -1.03353
1 21 -0.366801 1.49791 -1.7134
1 77 0.12754 -1.56718 -0.449863
1 55 -0.832982 -0.513308 -0.389538
1 48 0.269602 -0.363558 0.240696
1 78 0.924808 -0.968352 -0.455721
1 44 -1.12138 0.576495 -0.950989
1 13 0.992857 0.397588 -0.064741
1 22 -0.162924 1.4186 -0.746515
1 1 -0.332441 -1.34015 1.5977
1 54 -1.19381 -0.432259 0.530983
1 49 -0.0318831 0.0570373 1.08495
1 42 -1.03438 0.698466 1.04156
1 43 -0.946352 0.561424 0.0381793
1 12 1.05776 0.498831 0.929616
1 23 0.0222863 1.33573 0.216315
1 2 0.416715 -1.01687 1.0324
1 53 -1.08381 -0.279389 1.52336
1 3 0.89382 -0.479572 1.71956
1 41 -1.05385 0.779929 2.03476
1 50 -0.0480842 -0.105013 2.06062
1 11 1.1932 0.527075 1.91808
1 24 -0.12796 1.104 1.18237
1 52 -0.640998 -0.389831 2.40883
1 4 1.01389 -0.764804 2.68201
1 40 -1.00531 0.547685 2.99994
1 51 -0.145216 0.209576 3.02826
1 25 0.272815 1.24413 2.0905
1 10 1.26302 0.27867 2.88102
1 6 -0.337852 -0.465683 4.07914
1 5 0.425049 -0.767493 3.49066
1 39 -1.05525 0.27647 3.96375
1 27 0.0934366 1.04234 4.00865
1 9 1.05539 0.511119 3.82554
1 26 0.238773 1.37066 3.08001
1 7 0.00423944 -0.436996 5.0097
1 8 0.693259 0.171028 4.66619
1 38 -1.07447 -0.0736649 4.91453
1 28 -0.0789262 0.995002 5.00779
1 36 -0.110342 -0.87918 6.04966
1 37 -0.644826 -0.0691749 5.82337
1 29 -0.131987 0.928988 5.99719
1 35 0.618087 -0.207813 6.11113
1 34 0.749278 -0.137889 7.1072
1 30 0.107834 0.865003 6.96826
1 32 -0.232931 -0.63767 8.00106
1 33 0.736181 -0.382369 8.0758
1 31 -0.296644 0.306378 7.68188
ITEM: TIMESTEP
35000
ITEM: NUMBER OF ATOMS
80
ITEM: BOX BOUNDS ff ff ff
-1.0000000000000000e+01 1.0000000000000000e+01
-1.0000000000000000e+01 1.0000000000000000e+01
-5.0000000000000000e+01 5.0000000000000000e+01
ITEM: ATOMS type id x y z
1 64 -0.480335 0.450196 -8.09197
1 63 -0.701727 0.945854 -7.27007
1 65 -0.280241 -0.410177 -7.61342
1 70 0.654625 -0.423623 -6.80593
1 62 -0.604552 1.42704 -6.40788
1 69 0.913915 0.516193 -6.65267
1 66 -0.323641 -0.641776 -6.64118
1 67 -0.395992 -0.300336 -5.69125
1 71 0.615002 -0.64007 -5.84181
1 61 -0.225926 0.986222 -5.59019
1 68 0.392762 0.321345 -5.82429
1 72 0.630055 -0.664616 -4.84213
1 60 -0.105422 0.66402 -4.65266
1 73 0.162907 -0.234843 -4.06535
1 59 -0.816268 0.890297 -3.99218
1 18 0.858416 0.505053 -4.03011
1 19 0.13689 0.565435 -3.34489
1 17 1.15032 -0.376381 -3.64338
1 75 -0.608453 -0.770997 -2.33408
1 80 0.387473 -1.09273 -2.60823
1 57 -1.62128 -0.193965 -2.54277
1 74 -0.36435 -0.357401 -3.21398
1 16 1.12475 -0.102933 -2.6897
1 58 -1.11127 0.424388 -3.14077
1 20 0.194688 0.419036 -2.34123
1 76 -0.496362 -1.31343 -1.50551
1 56 -1.19948 -0.175662 -1.64266
1 46 -0.441103 0.299522 -1.05934
1 79 0.509778 -0.58805 -1.73949
1 15 1.53243 0.0856218 -1.81482
1 45 -0.918861 1.11246 -1.38794
1 21 0.615671 0.500494 -1.42488
1 77 -0.171123 -1.52717 -0.582388
1 55 -1.14955 -0.430914 -0.673855
1 47 -0.0805136 0.118507 -0.139281
1 78 0.223337 -0.623813 -0.778051
1 22 0.308387 0.971815 -0.601632
1 14 1.65863 0.545574 -0.936413
1 44 -0.95257 1.35852 -0.419404
1 1 0.423419 -1.347 0.424177
1 54 -1.20635 -0.426599 0.314729
1 53 -0.402766 -0.660107 0.875022
1 48 0.460829 -0.239085 0.624423
1 2 0.97237 -1.00998 1.17789
1 43 -1.51842 0.861241 0.223058
1 23 0.192781 0.890139 0.406423
1 13 1.53476 0.117061 -0.0488569
1 12 1.22717 0.645752 0.749739
1 41 -1.49018 -0.243126 1.89374
1 52 -0.0771403 -1.14768 1.67725
1 49 0.464411 -0.0671955 1.60656
1 3 1.29307 -0.715342 2.07578
1 42 -1.60435 0.308735 1.06439
1 24 -0.270458 0.578586 1.23985
1 11 0.812251 0.95862 1.6032
1 40 -1.49921 -0.615219 2.8314
1 51 -0.45736 -1.05231 2.58887
1 4 1.26843 -0.460804 3.05435
1 50 -0.00492759 -0.174047 2.4793
1 10 0.678774 0.57013 2.49641
1 25 -0.359288 1.01774 2.14982
1 39 -0.968928 -0.91458 3.63981
1 5 0.427538 -0.845995 3.46203
1 9 0.99228 0.582558 3.4515
1 26 -0.354976 1.09812 3.14041
1 37 -0.3937 -0.44634 5.19105
1 6 0.227784 -0.405125 4.3443
1 7 0.747662 -0.262704 5.1838
1 38 -0.967466 -0.251791 4.37583
1 28 -0.250131 0.596148 5.00868
1 8 0.809695 0.312872 4.39403
1 27 -0.0354818 0.829652 4.04972
1 36 -0.161404 -0.65961 6.14989
1 29 -0.328728 0.560977 6.00603
1 35 0.442926 -0.328609 6.88221
1 30 -0.589568 0.300387 6.93003
1 31 -0.413339 -0.285112 7.71446
1 32 0.0308424 -0.587747 8.55798
1 33 0.491695 0.291378 8.3938
1 34 0.834458 0.387308 7.46501
ITEM: TIMESTEP
40000
ITEM: NUMBER OF ATOMS
80
ITEM: BOX BOUNDS ff ff ff
-1.0000000000000000e+01 1.0000000000000000e+01
-1.0000000000000000e+01 1.0000000000000000e+01
-5.0000000000000000e+01 5.0000000000000000e+01
ITEM: ATOMS type id x y z
1 64 0.0434818 -0.0792049 -9.36253
1 65 -0.381402 -0.63847 -8.65731
1 63 -0.187176 0.45511 -8.55504
1 66 -0.485263 -0.623101 -7.66801
1 67 -0.123043 -0.580373 -6.73544
1 62 -0.340441 0.441471 -7.56689
1 61 -0.26982 0.628473 -6.58113
1 71 0.814915 0.147035 -5.28441
1 60 -0.654618 0.43971 -5.68723
1 68 0.452839 -0.0151922 -6.1373
1 70 1.30059 0.87399 -5.762
1 69 0.675994 0.886068 -6.51797
1 73 -0.331914 -1.08387 -4.3499
1 72 0.0608157 -0.470019 -5.04446
1 59 -0.769533 0.488176 -4.68838
1 74 -0.539193 -0.651625 -3.46573
1 58 -0.919527 0.527861 -3.70724
1 17 1.40646 -0.332676 -3.64716
1 18 0.792243 0.357476 -4.03189
1 80 0.179851 -1.17113 -2.7678
1 57 -1.21595 0.346788 -2.76514
1 75 -0.267287 -0.120583 -2.659
1 19 0.261751 0.583838 -3.21799
1 16 0.965266 0.020788 -2.82644
1 20 0.410675 0.847515 -2.26358
1 79 0.696523 -1.13623 -1.90311
1 78 1.02194 -0.815296 -1.02557
1 55 -1.13129 -0.459926 -1.0084
1 56 -1.01968 -0.237117 -1.97294
1 76 -0.0311895 -0.191628 -1.69687
1 45 -0.783523 0.713046 -1.3844
1 15 1.00674 0.0154282 -1.81772
1 21 0.0994221 1.38921 -1.49301
1 54 -0.846314 -0.840775 -0.116509
1 77 0.122538 -0.461268 -0.742536
1 1 0.894342 -1.0376 0.148265
1 44 -1.20534 0.873868 -0.499594
1 46 -0.508256 0.397286 -0.461431
1 14 1.12179 0.182738 -0.847207
1 22 -0.0270237 1.34542 -0.500245
1 53 -0.686577 -0.937183 0.85471
1 47 -0.0790468 -0.10181 0.279179
1 2 0.725733 -0.617481 1.0248
1 43 -1.15191 0.240285 0.263926
1 13 0.878822 0.249923 0.115856
1 23 0.0123964 1.23318 0.499269
1 52 -0.574734 -1.06393 1.84829
1 48 -0.169042 -0.14063 1.29525
1 3 0.979986 -0.508671 1.98295
1 42 -1.56913 -0.0657534 1.11238
1 24 -0.0766048 1.08633 1.47237
1 12 0.794892 0.42075 1.09492
1 11 0.641059 0.684856 2.05274
1 49 -0.0832667 -0.132843 2.29771
1 40 -0.916951 -0.330506 2.9499
1 51 -0.0175095 -1.00931 2.67328
1 50 0.157206 -0.245235 3.27908
1 4 1.06378 -0.141204 2.91321
1 41 -1.23236 -0.076144 2.03429
1 25 -0.501808 0.788762 2.32219
1 10 0.645531 0.688324 3.05914
1 39 -0.618718 -0.877022 3.72662
1 5 1.11253 -0.583292 3.80382
1 26 -0.43852 0.638148 3.31847
1 9 0.506233 0.839353 4.03184
1 38 -0.21905 -0.432242 4.53117
1 6 0.827217 -0.820337 4.71907
1 7 0.894803 -0.245899 5.54499
1 27 -0.4253 0.501566 4.30702
1 28 -0.561771 0.402484 5.28908
1 8 0.436086 0.388502 4.92982
1 37 -0.292839 -0.705163 5.4947
1 29 -0.590372 0.391372 6.2998
1 36 0.0471619 -0.802542 6.44833
1 35 0.26364 -0.619038 7.40775
1 30 -0.595802 -0.00971088 7.21289
1 31 -0.453935 -0.0525323 8.21486
1 34 0.662853 0.127692 7.91977
1 32 -0.218769 0.159572 9.16032
1 33 0.533681 0.662171 8.75582
ITEM: TIMESTEP
45000
ITEM: NUMBER OF ATOMS
80
ITEM: BOX BOUNDS ff ff ff
-1.0000000000000000e+01 1.0000000000000000e+01
-1.0000000000000000e+01 1.0000000000000000e+01
-5.0000000000000000e+01 5.0000000000000000e+01
ITEM: ATOMS type id x y z
1 64 -0.220454 0.642284 -10.0594
1 66 -0.133261 -0.435483 -9.04064
1 65 0.196447 -0.267528 -9.98271
1 63 -0.594529 0.44841 -9.14202
1 67 -0.119065 -0.253079 -8.06734
1 62 -0.851901 0.938993 -8.29999
1 61 -0.950575 0.804388 -7.32433
1 68 -0.00273032 0.0438603 -7.11168
1 60 -1.00165 0.33012 -6.4483
1 69 0.554031 0.420935 -6.39052
1 70 0.812634 1.03527 -5.64213
1 73 0.0869858 -0.949579 -4.36796
1 72 0.310629 -0.474804 -5.21111
1 59 -1.15594 0.290298 -5.46211
1 71 0.677272 0.403197 -4.88606
1 57 -0.985088 -0.207099 -3.53878
1 74 0.397186 -0.726102 -3.44306
1 17 1.37923 -0.173973 -3.34382
1 58 -1.03217 0.14044 -4.47823
1 18 0.606267 0.232585 -3.82533
1 80 -0.337463 -1.3073 -2.7464
1 56 -0.99491 -0.357091 -2.55714
1 75 0.604255 -0.664867 -2.46224
1 19 0.00221942 0.355979 -3.04961
1 16 1.32654 0.293308 -2.46212
1 55 -1.12279 -0.440562 -1.58222
1 76 -0.0773096 -0.0875246 -2.0063
1 79 -0.048887 -1.82066 -1.9244
1 20 0.198052 0.938019 -2.27271
1 21 0.0773704 1.27114 -1.32926
1 15 1.26418 0.0893475 -1.48783
1 44 -1.42831 0.226985 0.0788482
1 54 -0.850177 -0.928334 -0.748831
1 78 0.114979 -1.44532 -1.02405
1 77 0.0552615 -0.449985 -1.08262
1 45 -1.47039 0.59984 -0.857594
1 46 -0.574423 0.37614 -0.46011
1 14 1.30998 0.0736812 -0.493238
1 22 -0.326508 1.42506 -0.4242
1 53 -0.407009 -1.15864 0.107279
1 1 0.655478 -0.764334 0.584298
1 43 -1.45372 0.393327 1.06484
1 47 -0.00399138 0.126185 0.323755
1 23 -0.223195 1.32039 0.577429
1 13 0.995776 0.39349 0.402384
1 52 -0.392329 -0.982043 1.09962
1 51 -0.161436 -0.91045 2.0592
1 2 0.758799 -0.863856 1.58979
1 42 -1.1434 0.435141 2.02809
1 48 -0.070319 0.00906812 1.31211
1 49 0.265382 0.00746991 2.25904
1 12 0.938241 0.696984 1.36178
1 24 -0.00314224 1.02774 1.50549
1 41 -1.17048 0.275162 3.01739
1 50 0.265267 -0.711698 2.94674
1 3 1.2584 -0.660247 2.41817
1 25 -0.0923804 0.905156 2.48928
1 11 0.92609 1.09819 2.28061
1 40 -0.49945 -0.338037 3.43243
1 39 -0.243191 -1.05367 4.05935
1 4 1.21639 -0.61694 3.42024
1 26 -0.294185 0.774671 3.46648
1 10 0.977816 0.778614 3.24004
1 9 0.621322 0.49349 4.13183
1 38 0.00953905 -1.21859 5.01282
1 5 1.14418 -0.592236 4.40048
1 6 1.17535 -0.715705 5.39674
1 27 -0.422848 0.556528 4.42464
1 28 -0.219341 0.594245 5.3985
1 8 0.838565 0.399282 5.09712
1 37 -0.317733 -0.73263 5.79809
1 7 0.712359 -0.0560185 5.97436
1 29 -0.108389 0.711326 6.37776
1 36 0.146466 -0.559853 6.66304
1 30 -0.0648645 0.553067 7.36889
1 35 0.158775 -0.453435 7.66178
1 34 -0.268158 -0.683762 8.53014
1 31 -0.340975 0.719623 8.32111
1 33 -0.695824 -0.209142 9.31433
1 32 -0.162824 0.621142 9.31046
ITEM: TIMESTEP
50000
ITEM: NUMBER OF ATOMS
80
ITEM: BOX BOUNDS ff ff ff
-1.0000000000000000e+01 1.0000000000000000e+01
-1.0000000000000000e+01 1.0000000000000000e+01
-5.0000000000000000e+01 5.0000000000000000e+01
ITEM: ATOMS type id x y z
1 64 0.188986 -0.0804145 -9.41506
1 65 0.245517 -1.08793 -9.41096
1 66 0.374125 -0.253723 -8.89324
1 63 -0.382046 0.595815 -8.94725
1 62 -0.918019 0.294849 -8.17414
1 67 0.519825 -0.00739289 -7.92967
1 61 -0.92168 0.215092 -7.17308
1 68 0.777404 0.193142 -6.98162
1 60 -0.707503 -0.0773029 -6.23851
1 71 0.162284 0.630676 -5.70612
1 72 0.606835 -0.257027 -5.73487
1 69 0.935291 0.158532 -5.98947
1 73 0.208862 -0.522572 -4.8559
1 59 -0.825021 0.138273 -5.27354
1 58 -1.04928 0.111604 -4.2967
1 70 0.864052 0.417404 -5.02653
1 57 -1.1159 -0.100515 -3.32417
1 74 -0.051526 -0.578362 -3.90995
1 18 -0.019023 0.776655 -4.04867
1 17 0.738853 0.797877 -3.41085
1 80 -0.477631 -1.69568 -2.75673
1 79 0.420984 -1.51463 -2.35202
1 56 -1.05815 -0.588888 -2.46018
1 75 0.0870755 -0.621153 -2.89896
1 19 -0.39753 0.699941 -3.1142
1 16 0.514064 0.438944 -2.51247
1 78 1.19632 -1.44881 -1.71233
1 55 -0.906023 -0.567084 -1.47872
1 76 0.0918604 -0.424923 -1.91318
1 20 -0.279259 1.18065 -2.26111
1 21 -0.191143 1.25993 -1.26278
1 15 0.661101 0.313949 -1.52688
1 54 -0.724684 -0.944485 -0.576299
1 77 0.636424 -0.811494 -1.18969
1 45 -1.09446 0.132033 -0.597823
1 46 -0.0988744 0.129306 -0.47937
1 14 1.09816 0.0454389 -0.65842
1 22 0.0696231 1.35625 -0.306202
1 53 -0.0388434 -0.876727 0.161722
1 1 0.706957 -0.894429 0.885318
1 44 -1.42424 -0.0971885 0.317497
1 47 0.00249234 0.11292 0.519027
1 13 1.05817 0.590741 0.173517
1 12 1.08858 0.568643 1.17148
1 23 0.32543 1.43464 0.670795
1 52 -0.392718 -0.697579 1.08143
1 2 0.702903 -1.02076 1.8602
1 43 -1.18334 0.137707 1.26545
1 42 -1.49357 0.219222 2.20267
1 24 -0.177909 0.954639 1.38539
1 48 0.384901 -0.0933945 1.4169
1 11 1.41156 1.00204 2.00392
1 51 -0.505164 -0.851725 2.06236
1 41 -0.845464 -0.0931726 2.88878
1 50 -0.218546 -0.837281 3.01604