ITEM: TIMESTEP
0
ITEM: NUMBER OF ATOMS
80
ITEM: BOX BOUNDS ff ff ff
-1.0000000000000000e+01 1.0000000000000000e+01
-1.0000000000000000e+01 1.0000000000000000e+01
-5.0000000000000000e+01 5.0000000000000000e+01
ITEM: ATOMS type id x y z
1 69 -3.16955 -3.35875 -0.648425
1 70 -2.92166 -3.48107 -0.317396
1 72 -2.42527 -3.68646 -0.0118263
1 73 -2.1778 -3.77099 -0.568829
1 74 -1.93131 -3.84435 -0.248517
1 76 -1.44201 -3.96031 -0.301562
1 80 -0.47803 -4.085 -0.596936
1 64 -4.37386 -2.52462 -0.393429
1 65 -4.14107 -2.72297 -0.228425
1 67 -3.66117 -3.07138 -0.34613
1 68 -3.41634 -3.2224 -0.611913
1 59 -5.41222 -1.28215 -0.253526
1 60 -5.22624 -1.56406 -0.428295
1 61 -5.02787 -1.82941 -0.957158
1 62 -4.81868 -2.07798 -0.716046
1 56 -5.87977 -0.341901 -0.088372
1 52 -6.23383 1.09976 -0.0922737
1 53 -6.17862 0.722736 -0.111947
1 2 6.10013 0.355282 -0.0717076
1 3 6.17851 0.722143 -0.0629778
1 50 -6.26996 1.87768 -0.395057
1 51 -6.26466 1.48532 -0.359713
1 6 6.26997 1.87705 -0.0348432
1 48 -6.20022 2.6751 -0.353784
1 7 6.24881 2.27431 -0.0153736
1 8 6.20031 2.67447 -0.837081
1 45 -5.88504 3.87129 -0.762589
1 10 6.01891 3.47489 -0.955271
1 12 5.72289 4.26036 -0.100827
1 41 -5.06554 5.36989 -0.0145083
1 42 -5.31235 5.01265 -0.640086
1 13 5.53191 4.64163 -0.0799878
1 14 5.31272 5.01207 -0.589197
1 15 5.06595 5.36933 -0.377146
1 38 -4.16899 6.33952 -0.384462
1 19 3.82291 6.62101 -0.0358324
1 36 -3.45442 6.87935 -0.128019
1 35 -3.06709 7.11145 -0.15525
1 21 3.06772 7.1111 -0.656768
1 20 3.45502 6.87896 -0.453413
1 30 -0.915254 7.83388 -0.0755936
1 26 0.915977 7.83377 -0.881388
1 27 0.459509 7.8834 -0.218347
1 28 0.000365982 7.9 -0.815824
1 71 -2.67337 -3.59006 0.364029
1 75 -1.68601 -3.90724 0.055985
1 77 -1.19933 -4.00414 0.528027
1 78 -0.957883 -4.03925 0.220752
1 79 -0.717522 -4.06609 0.47652
1 63 -4.60019 -2.30969 0.664595
1 66 -3.90311 -2.90508 0.804348
1 57 -5.74059 -0.67042 0.862604
1 58 -5.5842 -0.984083 0.546904
1 54 -6.10028 0.355857 0.65023
1 55 -6.00018 0.000555938 0.19117
1 1 6 0 0.990403
1 4 6.23376 1.09915 0.0307284
1 5 6.26463 1.4847 0.259797
1 47 -6.12369 3.07604 0.272497
1 49 -6.24875 2.27494 0.205573
1 9 6.12383 3.0754 0.494996
1 44 -5.72261 4.26098 0.962331
1 46 -6.01872 3.47553 0.384527
1 11 5.88528 3.87066 0.0514697
1 43 -5.53158 4.64223 0.470128
1 39 -4.49269 6.03555 0.203044
1 40 -4.79196 5.71162 0.482214
1 37 -3.82234 6.62144 0.449381
1 18 4.16953 6.33906 0.945315
1 16 4.79242 5.71109 0.614466
1 17 4.49319 6.03505 0.658247
1 33 -2.24245 7.4918 0.495494
1 34 -2.66237 7.31608 0.0564417
1 31 -1.36641 7.75164 0.673984
1 32 -1.80965 7.63734 0.832931
1 24 1.81035 7.63713 0.494368
1 25 1.36713 7.75148 0.4468
1 22 2.66302 7.31578 0.609796
1 23 2.24313 7.49155 0.978883
1 29 -0.458779 7.88345 0.217407
ITEM: TIMESTEP
5000
ITEM: NUMBER OF ATOMS
80
ITEM: BOX BOUNDS ff ff ff
-1.0000000000000000e+01 1.0000000000000000e+01
-1.0000000000000000e+01 1.0000000000000000e+01
-5.0000000000000000e+01 5.0000000000000000e+01
ITEM: ATOMS type id x y z
1 60 0.288908 -0.0873093 -3.63601
1 61 -0.459286 0.0292683 -2.98892
1 59 0.0265656 0.117494 -2.71538
1 44 -1.37828 0.223772 -2.10004
1 25 0.46072 1.06259 -2.22482
1 70 -0.360992 -1.67289 -2.60732
1 69 -0.394016 -1.35221 -1.66303
1 67 -0.465241 -2.09835 -1.35069
1 71 0.207941 -1.09241 -2.00746
1 63 -1.21821 -0.822358 -1.47862
1 62 -0.976093 -0.63667 -2.44013
1 58 -0.162672 -0.137533 -1.77287
1 79 1.34345 -0.968415 -1.33815
1 80 1.11336 -0.737019 -2.27492
1 43 -1.65277 0.172197 -1.14256
1 45 -0.643685 0.859478 -1.87292
1 12 0.83171 -0.0605678 -1.07011
1 22 0.232306 0.683044 -1.3078
1 24 1.07732 0.284463 -2.29855
1 26 0.0430844 1.67333 -1.55873
1 23 1.07035 1.07302 -1.68472
1 64 -1.42686 -0.653472 -0.524122
1 68 -0.717764 -1.37155 -0.724785
1 66 -0.740634 -1.58645 -0.537888
1 72 0.323358 -1.09804 -1.02333
1 73 0.299181 -1.608 -0.170172
1 78 1.15721 -1.43563 -0.474834
1 57 -0.329754 -0.266795 -0.783415
1 3 0.57983 -0.309126 -0.0756447
1 6 0.809817 -0.420123 -0.176346
1 7 1.25824 0.304603 0.366497
1 42 -1.99524 0.249738 -0.195076
1 47 -0.99297 0.117776 -0.0646962
1 46 -0.933325 0.541092 -0.971384
1 21 -0.115473 0.685344 -0.359536
1 11 0.952446 0.751612 -0.505933
1 14 1.314 1.00042 -0.602788
1 13 1.78902 0.178666 -0.876697
1 38 -1.1218 1.42973 0.40358
1 27 0.0250723 1.87482 -0.586021
1 65 -1.24489 -1.23043 0.26896
1 74 -0.207194 -1.75364 0.679094
1 77 1.07822 -1.54339 0.515961
1 50 -1.06011 0.0659521 0.145894
1 49 -1.71853 -0.410491 0.71521
1 48 -0.841859 -8.98805e-05 0.936675
1 56 -0.323389 -0.806355 0.0705229
1 2 0.644956 -0.423923 0.928822
1 5 0.726315 -0.573985 0.826332
1 4 1.50429 -0.529686 0.21651
1 41 -2.01722 0.646573 0.719824
1 39 -0.615692 0.900934 1.08002
1 37 -1.13131 1.05063 1.31086
1 20 0.111073 0.346721 0.54795
1 10 1.10778 0.544375 0.467644
1 8 2.20704 0.296227 0.678294
1 31 -0.141501 1.93592 0.921799
1 28 -0.028329 1.42849 0.326264
1 30 0.393256 1.41743 0.272097
1 15 1.47592 1.40715 0.306041
1 16 1.33865 1.30097 1.28833
1 75 0.154999 -1.59005 1.59518
1 51 -1.0157 0.0339835 1.14369
1 55 -0.42923 -0.894523 1.06623
1 52 -0.721519 -0.35459 2.02589
1 54 -0.302663 -0.463101 1.9713
1 1 0.842804 -0.40773 1.89307
1 76 1.15804 -1.46776 1.50644
1 40 -1.50926 0.953065 1.52232
1 36 -0.780053 0.713212 2.19482
1 19 0.216112 0.269675 1.52536
1 9 1.467 0.174124 1.33182
1 17 1.02027 0.82088 2.10572
1 32 -0.192848 1.44773 1.80371
1 29 0.292527 1.28894 1.26166
1 53 -0.433419 -0.591537 2.94839
1 33 -0.378848 0.821462 2.56562
1 34 -0.254733 0.327429 3.45029
1 18 0.335494 0.235305 2.52907
1 35 -0.507686 1.19283 3.02298
ITEM: TIMESTEP
10000
ITEM: NUMBER OF ATOMS
80
ITEM: BOX BOUNDS ff ff ff
-1.0000000000000000e+01 1.0000000000000000e+01
-1.0000000000000000e+01 1.0000000000000000e+01
-5.0000000000000000e+01 5.0000000000000000e+01
ITEM: ATOMS type id x y z
1 61 0.133071 0.203139 -4.62413
1 69 -0.172997 -0.941888 -4.19349
1 70 0.313121 -0.760906 -3.33184
1 62 -0.754217 0.515813 -4.32113
1 63 -0.47849 -0.0207064 -3.53465
1 60 0.121418 0.290303 -3.64545
1 71 0.162649 -1.10838 -2.40892
1 68 -0.444924 -1.17715 -3.25487
1 59 0.134371 -0.0398503 -2.6888
1 80 1.20571 -0.824086 -2.25482
1 44 -1.22013 0.791601 -2.4441
1 64 -1.162 -0.237513 -2.84327
1 24 0.789144 0.826836 -2.57367
1 25 -0.147681 1.03958 -2.81691
1 72 -0.0199932 -1.40666 -1.47124
1 65 -1.47938 -0.325383 -1.90978
1 67 -0.870616 -0.746537 -2.45799
1 58 0.468297 -0.176345 -1.75262
1 79 1.15746 -1.03268 -1.28187
1 43 -1.18512 0.682822 -1.45678
1 45 -0.506031 0.22493 -2.02652
1 12 1.30378 0.308311 -1.15978
1 26 -0.492082 1.46464 -1.96742
1 23 0.468759 0.895181 -1.63828
1 73 -0.234272 -1.70441 -0.544569
1 78 0.712245 -1.36331 -0.445272
1 66 -0.724465 -0.809756 -1.46215
1 49 -1.06989 -0.149961 -0.679522
1 57 0.187886 -0.56103 -0.880419
1 46 -0.414977 0.218668 -1.03591
1 22 0.286934 0.807578 -0.652201
1 11 1.07891 0.488282 -0.211764
1 13 1.42879 0.655178 -0.226678
1 42 -1.28058 0.945623 -0.488854
1 27 -0.549372 1.53272 -0.966335
1 28 -0.481629 1.5507 0.0348953
1 74 -0.46574 -1.62257 0.419215
1 77 0.819197 -1.67091 0.496389
1 48 -1.46532 -0.463888 0.193494
1 51 -1.179 -0.436575 0.784557
1 56 -0.172881 -0.759096 0.0335115
1 55 -0.237344 -0.515397 1.00194
1 6 0.774179 -0.586848 0.408549
1 3 0.793311 -0.495476 0.52475
1 4 1.72125 -0.761117 0.772447
1 7 1.66595 -0.432626 -0.0103911
1 41 -1.31865 0.878384 0.506511
1 50 -0.666315 0.154536 0.175898
1 47 -0.703134 0.13457 -0.084694
1 21 0.276896 0.634928 0.325267
1 20 0.261001 0.419137 1.30401
1 10 1.32529 0.412943 0.746403
1 8 1.53489 0.23091 0.720908
1 29 -0.325501 1.39263 1.00115
1 14 0.91213 1.43433 0.0855146
1 15 0.869748 1.24375 1.07712
1 75 -0.232555 -1.46695 1.38613
1 76 0.751644 -1.50586 1.47779
1 52 -1.11271 -0.841616 1.70307
1 5 1.01098 -0.383722 1.35984
1 2 0.787925 -0.423075 1.52899
1 54 -0.136795 -0.566633 1.99077
1 40 -0.725974 0.464845 1.20285
1 38 -1.5807 0.248195 1.7856
1 19 0.320458 0.560066 2.29119
1 9 1.61925 0.456326 1.69062
1 30 -0.425014 1.34607 2.00346
1 16 0.66975 1.08474 2.0395
1 53 -0.810286 -0.943893 2.62887
1 36 -0.392757 -0.0543177 3.14874
1 1 1.24481 -0.448489 2.4158
1 39 -0.670646 0.300422 2.18318
1 37 -1.27115 0.0039678 2.70437
1 18 0.678549 0.372639 3.21244
1 17 0.534824 1.33456 2.98475
1 31 -0.433813 1.02514 2.96376
1 35 -0.079194 -0.457453 3.99464
1 32 -0.3475 0.631978 3.87537
1 34 -0.0233889 -0.478063 4.99697
1 33 -0.0629665 0.502167 4.8362
ITEM: TIMESTEP
15000
ITEM: NUMBER OF ATOMS
80
ITEM: BOX BOUNDS ff ff ff
-1.0000000000000000e+01 1.0000000000000000e+01
-1.0000000000000000e+01 1.0000000000000000e+01
-5.0000000000000000e+01 5.0000000000000000e+01
ITEM: ATOMS type id x y z
1 68 -0.541857 -0.675641 -4.78076
1 63 -0.418961 1.20582 -4.78273
1 62 0.3644 1.04679 -5.39423
1 61 0.841649 0.371186 -4.85061
1 65 -0.355494 -0.142654 -3.57077
1 67 -0.6031 -1.02233 -3.84424
1 69 0.368811 -0.776663 -4.41149
1 70 0.654228 -0.929361 -3.46554
1 64 -0.210844 0.791382 -3.88545
1 60 0.800524 0.39532 -3.86448
1 66 -0.902442 -0.688213 -2.94535
1 80 1.21509 -0.420828 -2.25534
1 71 0.00135356 -1.18467 -2.7708
1 44 -0.757105 0.386619 -2.79531
1 59 0.557098 0.0326916 -2.94809
1 25 0.0692813 0.827833 -2.18521
1 79 0.637083 -1.02065 -1.7
1 72 -0.579374 -1.02931 -1.959
1 58 0.317684 -0.120902 -1.98147
1 57 -0.000124818 -0.299 -1.06444
1 12 1.10708 -0.0923378 -1.32727
1 43 -0.758213 0.141787 -1.82754
1 42 -0.895742 0.972442 -1.27739
1 45 -0.821841 0.357462 -1.78716
1 23 0.44655 0.755143 -1.2861
1 24 1.05901 0.705023 -2.06509
1 26 0.166458 1.32004 -1.31514
1 78 0.696503 -1.00146 -0.702101
1 49 -1.33368 -0.197837 -0.904367
1 73 -0.557998 -1.19662 -0.971233
1 56 -0.0431679 -0.53077 -0.100996
1 8 1.34391 -0.274157 -0.128482
1 48 -1.84417 0.508562 -0.449953
1 46 -0.995685 -0.256853 -1.01766
1 22 0.161246 0.383652 -0.394643
1 11 1.13505 0.136303 -0.358191
1 13 1.32308 0.629518 -0.660639
1 41 -0.670211 1.02016 -0.309293
1 27 0.28254 1.40813 -0.323653
1 74 -0.583604 -1.4033 0.0184335
1 77 0.66711 -1.27108 0.268435
1 47 -1.0379 0.0626249 -0.0810172
1 50 -1.08752 0.000229443 0.0465523
1 55 -0.188688 -0.56134 0.882429
1 7 0.788206 -0.103419 0.695129
1 10 0.876055 -0.186291 0.552862
1 9 1.75083 -0.657197 0.69294
1 21 -0.222381 0.385108 0.535183
1 51 -1.21545 -0.432251 0.936972
1 14 1.11815 0.871929 0.290548
1 40 -1.12042 0.969697 0.571268
1 28 0.126446 1.42248 0.654342
1 75 -0.452396 -1.49979 0.991473
1 76 0.496706 -1.51184 1.22387
1 54 -0.38943 -0.846019 1.80852
1 52 -0.940352 -0.655859 1.8663
1 6 0.650715 -0.480038 1.61776
1 3 0.695907 -0.671708 1.98159
1 39 -1.08326 0.653168 1.53032
1 20 0.0249566 0.433076 1.50857
1 15 0.83492 0.899897 1.24428
1 29 -0.151178 1.39342 1.60709
1 53 -0.595669 -0.701832 2.77588
1 5 0.614691 -0.395914 2.61514
1 2 0.536423 -0.561304 2.95993
1 4 1.57054 -0.390703 2.39797
1 38 -1.2066 0.364566 2.49442
1 19 -0.249182 0.132373 2.4152
1 16 0.887612 0.588424 2.19594
1 30 -0.353594 1.11256 2.55431
1 36 -0.980298 0.0245881 4.44285
1 1 -0.0171086 -0.942917 3.7069
1 37 -1.07848 0.289396 3.48235
1 18 -0.116158 0.0658495 3.40626
1 17 0.750844 0.486515 3.17304
1 31 -0.525032 1.13992 3.54918
1 32 -0.0513125 0.871819 4.40845
1 35 -0.749477 -0.500604 5.26635
1 33 0.541321 0.449498 5.09242
1 34 0.20541 -0.379305 5.5521
ITEM: TIMESTEP
20000
ITEM: NUMBER OF ATOMS
80
ITEM: BOX BOUNDS ff ff ff
-1.0000000000000000e+01 1.0000000000000000e+01
-1.0000000000000000e+01 1.0000000000000000e+01
-5.0000000000000000e+01 5.0000000000000000e+01
ITEM: ATOMS type id x y z
1 63 -0.51047 0.185914 -6.26415
1 68 0.21861 -0.453553 -5.70053
1 64 -0.942976 -0.644836 -5.92172
1 62 0.0445135 0.865411 -5.74368
1 65 -0.627907 -0.323981 -5.0474
1 67 -0.303719 0.017478 -4.9796
1 69 0.905056 -0.624341 -4.99581
1 61 0.335064 1.20062 -4.83787
1 66 -0.781688 -0.0485962 -4.11277
1 71 0.134606 -0.481004 -3.46264
1 70 0.676974 -0.0696335 -4.19541
1 60 0.250663 0.836725 -3.91261
1 72 -0.266242 -0.795331 -2.60941
1 80 1.06585 -0.301814 -2.79327
1 44 -0.897975 0.477783 -2.33191
1 59 -0.0686911 0.500886 -3.00811
1 73 -0.243583 -1.33351 -1.75766
1 79 0.69885 -0.719617 -1.94704
1 57 0.2625 0.010344 -1.11554
1 12 1.30871 0.169682 -1.3088
1 43 -0.923515 0.667435 -1.34847
1 45 -0.792881 -0.373719 -1.79905
1 26 0.0309734 1.36002 -0.96748
1 58 0.215446 0.138061 -2.10675
1 24 0.833737 0.895164 -1.85554
1 25 -0.149058 1.01571 -1.88025
1 74 -0.3086 -1.62712 -0.805502
1 49 -0.680987 -0.686232 -0.692457
1 46 -0.698329 -0.31824 -0.795544
1 78 0.834848 -0.860626 -0.962869
1 56 0.107425 -0.412534 -0.232063
1 77 0.882086 -1.03525 0.0339242
1 11 1.28936 0.0859357 -0.313854
1 22 -0.164577 0.632547 -0.343165
1 23 0.0888279 1.02271 -1.21747
1 13 1.11679 0.832025 -0.581083
1 42 -1.18918 0.58925 -0.416969
1 27 0.000452128 1.68972 -0.0283756
1 48 -1.46743 -1.24665 -0.481111
1 75 0.137786 -1.39782 0.0580955
1 76 0.695228 -1.51608 0.877142
1 47 -1.03723 -0.578558 0.121856
1 50 -0.806877 -0.503309 0.266785
1 55 0.0611766 -0.655713 0.736517
1 7 1.26396 0.0906584 0.796527
1 41 -1.11328 0.432488 0.569888
1 21 -0.0612731 0.292364 0.5946
1 10 0.947605 -0.138709 0.603238
1 14 0.704208 0.905368 0.326193
1 8 1.5739 0.326187 1.724
1 28 -0.545898 1.46985 0.786898
1 15 0.623136 0.782423 1.31918
1 52 -1.02479 -0.588731 2.23922
1 51 -0.97416 -0.608289 1.2481
1 54 0.000879345 -0.94813 1.69911
1 6 0.743167 -0.233049 1.58636
1 9 0.74513 -0.212602 1.56726
1 40 -1.30137 0.317931 1.55414
1 20 -0.246782 0.0295274 1.54154
1 16 0.539348 1.28718 2.16282
1 29 -0.524576 1.58283 1.77096
1 2 0.390066 -0.978741 3.49387
1 53 -0.236213 -1.04377 2.6603
1 5 0.662291 -0.548582 2.55041
1 3 0.624829 -0.53829 2.62587
1 4 1.2764 0.205409 2.7479
1 39 -1.35553 0.428674 2.54468
1 19 -0.237384 0.164382 2.52189
1 17 0.580749 0.904779 3.0855
1 30 -0.37546 1.23057 2.70967
1 1 0.00841552 -1.13248 4.40166
1 38 -0.930482 -0.199534 3.18721
1 37 -0.809906 -0.426526 4.14569
1 31 -0.564921 0.86795 3.61759
1 18 0.123356 0.0814875 3.44501
1 36 -0.501237 -0.293918 5.09317
1 33 0.470815 0.424726 5.03151
1 32 -0.38298 0.55164 4.56628
1 35 -0.130363 -0.253851 6.02976
1 34 0.704735 -0.416599 5.50194
ITEM: TIMESTEP
25000
ITEM: NUMBER OF ATOMS
80
ITEM: BOX BOUNDS ff ff ff
-1.0000000000000000e+01 1.0000000000000000e+01
-1.0000000000000000e+01 1.0000000000000000e+01
-5.0000000000000000e+01 5.0000000000000000e+01
ITEM: ATOMS type id x y z
1 64 -0.856182 -0.0890987 -6.82199
1 63 -0.0452171 0.274496 -6.35948
1 69 -0.150585 -0.973873 -5.418
1 68 0.595621 -0.481164 -5.86249
1 65 -0.594759 0.0257373 -5.86709
1 62 0.143242 1.05461 -5.777
1 67 0.148477 -0.134425 -5.04013
1 70 0.13743 -0.203261 -4.87379
1 66 -0.667764 0.449985 -4.961
1 61 0.187208 0.938483 -4.79482
1 71 0.165279 -0.691557 -3.99801
1 60 -0.126788 0.512343 -3.95101
1 45 -0.985629 -0.32357 -2.54184
1 72 -0.204097 -1.05837 -3.15109
1 44 -1.16519 0.62935 -2.30117
1 59 -0.221215 0.463631 -2.95543
1 80 0.823771 0.245566 -3.19702
1 58 -0.336328 0.241727 -1.97851
1 74 0.0738891 -1.28789 -1.26415
1 46 -0.674671 -0.586366 -1.6218
1 73 0.0241363 -0.899794 -2.19259
1 49 -0.808927 -0.521781 -1.5032
1 79 0.623569 -0.155629 -2.30288
1 57 0.217647 -0.12229 -1.23199
1 78 0.953267 -0.745728 -1.57141
1 43 -1.08218 0.743953 -1.313
1 25 -0.249227 1.28705 -1.61788
1 24 0.645361 0.884174 -1.85171
1 12 1.24965 0.358049 -0.954005
1 48 -1.47107 -1.06374 -1.0001
1 75 0.125504 -1.43566 -0.279678
1 47 -0.939403 -0.241028 -0.74183
1 50 -0.775485 -0.502526 -0.507304
1 56 0.541954 -0.467876 -0.34643
1 77 1.38964 -1.03566 -0.722806
1 42 -1.04155 0.655775 -0.317655
1 22 -0.151445 0.315464 -0.296315
1 23 -0.0792252 0.827024 -1.1582
1 13 0.809341 0.667408 -0.101396
1 11 1.5159 -0.0742697 -0.084758
1 26 -0.401713 1.45679 -0.645391
1 76 1.03565 -1.48345 0.119661
1 51 -0.400583 -0.504272 0.415543
1 55 0.555259 -0.742445 0.613781
1 10 1.2468 0.407165 0.76586
1 41 -1.02521 0.184209 0.565219
1 21 0.109867 0.292912 0.667916
1 14 0.764838 1.29147 0.671991
1 27 -0.337609 1.21944 0.323011
1 52 -0.228851 -0.618166 1.4004
1 54 0.324259 -1.20336 1.46311
1 9 1.12601 -0.0265789 1.65828
1 6 1.00614 -0.359246 1.82925
1 40 -1.24384 -0.124573 1.48427
1 20 0.207089 0.290181 1.66628
1 28 -0.549101 0.99961 1.29346
1 15 0.618262 1.13775 1.65662
1 39 -0.846193 -0.324524 2.38591
1 53 -0.144026 -1.0122 2.31388
1 5 0.483626 -0.382189 2.70871
1 8 0.723572 -0.364874 2.5068
1 7 1.7237 -0.239683 2.50573
1 29 -0.908237 0.864042 2.20567
1 30 -0.992456 0.614304 3.16101
1 19 -0.190555 0.344628 2.56406
1 16 1.08076 0.796428 2.46363
1 3 -0.0540951 -0.83038 4.46743
1 38 -0.864926 -0.331379 3.39126
1 4 0.347496 -0.901261 3.55055
1 31 -0.80432 0.685081 4.15034
1 17 1.2513 0.50876 3.399
1 18 0.270407 0.393397 3.44389
1 37 -0.957315 -0.310346 4.38137
1 2 0.615573 -0.115525 4.40181
1 32 -0.490791 0.640429 5.10074
1 1 0.666963 0.858457 4.63965
1 36 -0.989781 -0.289982 5.38542
1 35 -0.59489 -0.516778 6.29519
1 33 -0.0579694 0.373063 5.9537
1 34 0.180941 -0.156191 6.77631
ITEM: TIMESTEP
30000
ITEM: NUMBER OF ATOMS
80
ITEM: BOX BOUNDS ff ff ff
-1.0000000000000000e+01 1.0000000000000000e+01
-1.0000000000000000e+01 1.0000000000000000e+01
-5.0000000000000000e+01 5.0000000000000000e+01
ITEM: ATOMS type id x y z
1 64 0.297335 0.397711 -7.92078
1 68 -0.540586 -1.26797 -6.77677
1 67 0.271964 -0.833845 -7.17024
1 65 -0.695033 0.41743 -7.74782
1 66 -0.339376 -0.0727093 -6.97029
1 63 0.827459 0.188918 -7.08696
1 69 -0.422121 -1.11763 -5.79513
1 62 0.395121 0.227335 -6.17185
1 70 -0.531861 -0.385234 -5.127
1 71 -0.66839 0.0310575 -4.22971
1 80 0.439626 -0.510782 -5.42478
1 61 0.128373 0.430781 -5.2278
1 72 -0.0918888 -0.464789 -3.57391
1 79 0.414712 -0.425357 -4.43635
1 60 0.238804 0.732291 -4.28563
1 73 0.345623 -0.884494 -2.76992
1 78 0.934424 -0.198623 -3.62272
1 77 1.26971 -0.421493 -2.70822
1 45 -0.571799 -0.208393 -2.71815
1 59 0.2099 0.720034 -3.29538
1 58 0.385606 0.200766 -2.47181
1 74 0.292779 -0.80209 -1.78289
1 48 -1.07497 -1.36248 -1.58316
1 46 -0.839556 0.00423135 -1.78286
1 49 -1.03693 -0.368701 -1.68017
1 76 1.25686 -0.383699 -1.7045
1 43 -0.717085 0.523173 -1.27884
1 44 -0.602235 0.684307 -2.27183
1 57 0.234646 0.0792161 -1.48198
1 24 0.788558 1.22263 -1.25083
1 75 0.828409 -0.883257 -0.945195
1 47 -0.947031 -0.568291 -0.969138
1 50 -0.840076 -0.88639 -0.841843
1 56 0.0183596 -0.0478188 -0.516388
1 42 -0.968914 0.375254 -0.337867
1 25 0.102343 1.20221 -0.536188
1 23 0.726572 0.793025 -0.354209
1 12 1.13316 -0.129971 -0.186007
1 51 -0.969782 -0.647566 0.113303
1 55 0.139065 -0.702063 0.232959
1 11 0.936059 0.034401 0.788373
1 41 -0.982459 0.375647 0.656518
1 22 0.0374225 0.684691 0.360056
1 13 1.02839 0.462286 0.600509
1 26 -0.644842 1.37484 0.100567
1 27 -0.394752 1.35781 1.0588
1 52 -0.784708 -0.679822 1.10785
1 54 -0.135865 -0.845902 1.19573
1 53 -0.598849 -0.728663 2.09123
1 10 0.719993 -0.378706 1.66703
1 40 -1.12814 0.449659 1.62897
1 21 -0.139634 0.306312 1.26949
1 14 1.1634 0.505165 1.5812
1 28 -4.52625e-05 1.17864 1.96524
1 5 -0.246255 -0.819169 3.53344
1 9 0.431121 -0.745448 2.56203
1 6 0.601824 -0.95403 3.00977
1 8 0.356463 -0.722218 3.55135
1 20 -0.0656778 0.232741 2.27341
1 39 -0.972938 0.0910872 2.55792
1 15 1.12698 0.745956 2.55433
1 29 -0.0939842 1.46072 2.92996
1 4 -0.326059 -0.994161 4.51044
1 38 -0.891819 0.0279682 3.56344
1 7 1.22312 -0.241808 3.36574
1 30 -0.175742 1.29148 3.9143
1 19 0.0364241 0.436004 3.24039
1 16 0.407169 0.540013 3.21535
1 18 -0.0705866 0.18539 4.20981
1 3 0.138598 -1.22801 5.3598
1 37 -0.945643 -0.141895 4.5455
1 36 -0.406557 -0.292792 5.37365
1 2 0.7681 -0.491278 5.63051
1 31 -0.417369 1.09759 4.87344
1 17 0.820384 0.637736 4.1208
1 1 0.483469 0.329532 5.13197
1 35 -0.144181 -0.0397341 6.31966
1 33 -0.405997 0.0712626 6.42779
1 32 -0.191092 0.836544 5.81712
1 34 0.0625007 -0.0665623 7.2957
ITEM: TIMESTEP
35000
ITEM: NUMBER OF ATOMS
80
ITEM: BOX BOUNDS ff ff ff
-1.0000000000000000e+01 1.0000000000000000e+01
-1.0000000000000000e+01 1.0000000000000000e+01
-5.0000000000000000e+01 5.0000000000000000e+01
ITEM: ATOMS type id x y z
1 66 -0.86682 0.416338 -8.68992
1 65 -0.0063526 0.0858398 -9.07556
1 64 0.37993 0.258391 -8.16031
1 67 -0.650256 0.564917 -7.73613
1 63 0.596222 0.521187 -7.21303
1 68 -0.554822 0.375651 -6.74731
1 80 0.232247 -0.514474 -5.49499
1 62 0.52856 0.259721 -6.24373
1 69 -0.508712 0.361823 -5.74956
1 61 0.739261 0.280109 -5.28167
1 70 -0.598601 0.0429413 -4.80065
1 79 0.559417 -0.635214 -4.56526
1 60 0.258979 0.702604 -4.52645
1 71 -0.539996 -0.0612812 -3.81592
1 78 0.822033 0.159854 -4.03121
1 59 0.116537 0.62331 -3.52864
1 47 -1.1345 -1.27837 -2.90254
1 46 -1.09811 -0.284617 -2.78522
1 72 -0.196066 -0.766315 -3.18932
1 48 -0.76262 -0.681344 -2.20429
1 73 0.561028 -1.0018 -2.58245
1 45 -0.91483 0.680544 -2.65476
1 58 0.0379366 0.554757 -2.53654
1 77 1.10537 0.0230014 -3.0697
1 76 1.01682 0.381027 -2.13654
1 49 -1.05724 -0.43921 -1.29012
1 57 0.0158082 -0.0522668 -1.74669
1 74 0.807148 -0.948211 -1.61817
1 44 -0.767883 0.591602 -1.66416
1 75 1.08716 -0.0609169 -1.23468
1 24 0.134049 1.09238 -1.57748
1 50 -0.615658 -0.321936 -0.392866
1 56 -0.0154318 -0.797285 -1.05542
1 12 1.44571 -0.0940721 0.108415
1 23 0.392284 0.591203 -0.767459
1 43 -0.968462 0.628545 -0.686296
1 25 0.297996 1.23353 -0.614343
1 54 0.362186 -1.10199 0.863082
1 51 -0.9912 -0.390648 0.522415
1 55 0.140532 -0.930085 -0.087026
1 11 1.19026 -0.563158 0.954623
1 42 -0.771082 0.759527 0.290444
1 22 0.215198 0.0457072 0.0493205
1 41 -0.924666 0.318741 1.17134
1 13 0.861396 0.463104 0.709798
1 26 0.185443 1.14774 0.397051
1 52 -0.781292 -1.08949 1.20926
1 53 0.0115916 -1.14549 1.8173
1 21 0.0386175 -0.0716827 1.02321
1 10 0.883396 -0.727238 1.88881
1 40 -1.02667 -0.140565 2.05631
1 20 0.0386553 -0.178587 2.01465
1 14 0.832421 0.568683 1.70289
1 27 0.00956272 0.94416 1.3421
1 39 -1.20662 -0.0991524 3.03335
1 9 0.360985 -0.881406 2.72917
1 6 0.464401 -0.655153 3.10603
1 7 1.44625 -0.688049 3.29123
1 29 -0.313723 0.946944 3.13019
1 19 -0.236974 0.0334957 2.95268
1 15 0.692427 0.670397 2.68351
1 28 -0.451997 0.659369 2.18778
1 5 -0.442246 -0.986809 3.41474
1 8 0.542911 -0.746052 3.72108
1 38 -0.997599 0.201177 3.95944
1 18 0.139271 0.1807 3.86464
1 16 0.544955 0.377516 3.63489
1 30 -0.275248 1.1711 4.09366
1 4 -0.489068 -0.97119 4.40454
1 37 -0.808901 0.0747191 4.95024
1 31 -0.097343 0.982729 5.07233
1 17 0.835044 0.193309 4.58375
1 3 0.0661608 -0.779364 5.2017
1 2 0.509839 -0.483735 6.06905
1 36 -0.67949 -0.136296 5.9232
1 32 0.0871592 0.712958 6.02138
1 35 -0.819898 -0.26908 6.90011
1 33 0.0909772 0.0722449 6.79307
1 1 1.04869 0.360747 6.21433
1 34 -0.162459 -0.341813 7.66963
ITEM: TIMESTEP
40000
ITEM: NUMBER OF ATOMS
80
ITEM: BOX BOUNDS ff ff ff
-1.0000000000000000e+01 1.0000000000000000e+01
-1.0000000000000000e+01 1.0000000000000000e+01
-5.0000000000000000e+01 5.0000000000000000e+01
ITEM: ATOMS type id x y z
1 65 0.154211 -0.099817 -9.70653
1 66 -0.68958 -0.179503 -9.18834
1 64 0.427999 0.0254814 -8.77519
1 67 -0.564174 0.241516 -8.28463
1 63 0.575685 0.0358206 -7.78212
1 68 -0.408271 -0.0274499 -7.33781
1 62 0.740006 0.0588585 -6.78712
1 70 -0.780233 0.0519182 -5.41074
1 80 -0.0431916 -0.554615 -5.56901
1 69 -0.620143 -0.115816 -6.3799
1 61 0.571287 0.721637 -6.05153
1 71 -0.649153 -0.517846 -4.60522
1 78 1.01112 -0.179129 -4.09744
1 79 0.660606 -0.0938433 -5.03172
1 60 -0.061654 0.857074 -5.29912
1 72 -0.0794528 -0.701289 -3.82569
1 77 1.04556 0.265373 -3.2024
1 73 0.639569 -1.22346 -3.38566
1 58 0.137987 0.614991 -3.48788
1 59 -0.242181 0.479423 -4.40094
1 47 -0.945736 -0.48125 -2.76033
1 57 0.0473218 0.162353 -2.59916
1 74 0.833736 -0.785774 -2.50375
1 46 -0.842672 0.379207 -3.26475
1 45 -0.754215 0.655267 -2.3067
1 76 0.92024 0.743565 -2.34263
1 48 -0.319198 -0.785883 -2.05283
1 56 0.105655 0.052935 -1.59862
1 75 1.17514 -0.100133 -1.86924
1 44 -0.901047 0.473442 -1.34662
1 24 0.143778 1.13946 -1.15826
1 50 -0.700934 -0.818882 -0.193667
1 49 -0.688209 -0.533751 -1.15944
1 55 0.469041 -0.170088 -0.694169
1 43 -1.22634 0.335153 -0.407996
1 25 -0.289232 1.00289 -0.272066
1 23 0.537439 0.867719 -0.279696
1 51 -0.913091 -0.768369 0.790082
1 21 -0.0162888 -0.231525 1.15792
1 54 0.423814 -0.734238 0.129846
1 42 -1.04229 0.210303 0.561776
1 26 -0.266837 1.11844 0.708528
1 22 0.0198641 0.225271 0.268447
1 12 0.938703 0.730266 0.934632
1 53 0.339702 -1.23996 1.00374
1 52 -0.482257 -1.22333 1.56475
1 11 0.955834 -0.155384 1.38418
1 10 0.819277 -0.743701 2.17519
1 41 -1.11468 0.32011 1.56059
1 20 -0.396855 -0.168314 2.07608
1 13 0.871975 0.75023 1.9422
1 27 -0.304662 0.851499 1.65109
1 6 -0.171252 -0.95 2.83056
1 9 0.206848 -1.1681 2.84525
1 7 0.548328 -0.694394 2.17501
1 40 -1.09402 0.438871 2.54986
1 19 0.0294423 -0.0201631 2.96823
1 14 0.722811 0.796081 2.92864
1 28 -0.214493 1.03812 2.62655
1 5 -0.343999 -0.868564 3.81038
1 38 -0.766361 -0.217262 4.39824
1 8 1.14631 -0.889244 2.95833
1 18 0.234054 0.0358289 3.9445
1 39 -0.898379 0.191216 3.49311
1 15 1.05907 0.488295 3.83075
1 29 -0.0955504 1.20594 3.62734
1 37 -0.87891 -0.608228 5.31705
1 3 0.316238 -0.46839 5.57263
1 4 0.239765 -0.725667 4.6176
1 30 -0.393752 0.808493 4.46592
1 17 0.334203 0.235551 4.91049
1 16 1.28176 0.557005 4.8059
1 36 -0.547329 -0.35771 6.23956
1 2 0.639044 -0.65971 6.50335
1 31 -0.666159 0.448202 5.36625
1 35 -0.406401 -0.390653 7.22812
1 32 -0.101552 0.590415 6.16812
1 33 0.101102 0.52999 7.14859
1 1 0.618211 -0.218368 7.40361
1 34 -0.122015 0.135588 8.04622
ITEM: TIMESTEP
45000
ITEM: NUMBER OF ATOMS
80
ITEM: BOX BOUNDS ff ff ff
-1.0000000000000000e+01 1.0000000000000000e+01
-1.0000000000000000e+01 1.0000000000000000e+01
-5.0000000000000000e+01 5.0000000000000000e+01
ITEM: ATOMS type id x y z
1 65 -0.0518343 0.119852 -10.2534
1 64 0.395478 -0.131174 -9.38284
1 66 -0.404553 0.733347 -9.54456
1 67 -0.700969 0.288471 -8.68192
1 68 -0.742197 0.539898 -7.7035
1 63 0.21136 0.0146317 -8.41901
1 80 -0.407135 -0.343641 -6.67941
1 69 -0.909546 0.635539 -6.71459
1 62 0.358348 -0.188207 -7.46177
1 79 0.0518089 -0.73294 -5.88054
1 70 -0.554072 0.646144 -5.7841
1 61 0.487822 0.104432 -6.49936
1 60 0.602303 0.589202 -5.62713
1 78 0.325448 -0.627589 -4.92335
1 71 -0.567795 -0.0500048 -5.05106
1 59 0.256096 0.538236 -4.68243
1 72 -0.337851 -0.406205 -4.14349
1 73 0.0834862 -0.906037 -3.41268
1 47 -0.993322 -0.28411 -3.23639
1 77 0.942994 -0.60105 -4.14368
1 76 1.23852 -0.401803 -3.20876
1 46 -0.585999 0.475095 -3.73813
1 58 0.461585 0.277508 -3.74424
1 48 -0.80822 -0.753609 -2.37885
1 74 0.281028 -0.599921 -2.47881
1 75 1.21103 -0.328039 -2.20834
1 57 0.331232 0.341067 -2.74115
1 45 -0.77565 0.484021 -2.74872
1 49 -0.774516 -0.435862 -1.43711
1 44 -0.759511 0.592941 -1.75007
1 56 0.201569 0.136437 -1.77621
1 50 -0.686717 -0.477727 -0.440856
1 55 0.229556 -0.628896 -1.13646
1 43 -0.984993 0.48684 -0.779815
1 24 0.0110393 0.734518 -0.626266
1 53 -0.218761 -0.628773 0.697218
1 54 0.228257 -0.87323 -0.166568
1 51 -0.706868 -0.671708 0.546379
1 23 0.663933 0.123326 -0.203381
1 22 0.525153 0.0646578 0.790512
1 42 -0.859445 0.429608 0.215236
1 25 0.0615745 0.972265 0.359226
1 52 -0.723296 -0.991992 1.47559
1 21 0.0454448 0.12629 1.66609
1 11 0.351252 -0.855723 1.66318
1 12 0.961334 -0.080043 1.69126
1 41 -0.835842 0.549966 1.20751
1 40 -0.889928 0.315968 2.17833
1 26 0.160671 1.19812 1.33403
1 10 -0.166634 -1.11114 2.4672
1 9 -0.310838 -0.882034 3.42866
1 7 0.771604 -0.728809 2.85908
1 39 -0.801824 0.0640925 3.12851
1 20 0.0982004 0.123074 2.66359
1 13 1.36532 0.556037 2.33458
1 28 -0.171576 1.1989 3.28024
1 27 0.104871 1.07742 2.32212
1 6 0.0303318 -0.790268 3.51077
1 38 -0.571201 -0.0073496 4.10282
1 8 0.619118 -0.914272 3.82429
1 14 1.39031 0.715828 3.32515
1 19 0.564339 0.16761 3.54874
1 15 1.07058 0.945745 4.22954
1 29 -0.47706 0.973086 4.19327
1 5 0.327546 -1.25841 4.34145
1 37 -0.569815 -0.196711 5.07981
1 4 0.422421 -0.976079 5.30385
1 30 -0.26672 0.748394 5.14268
1 18 0.525393 -0.0484776 4.53197
1 16 1.00119 0.791006 5.23162
1 36 -0.760233 -0.239666 6.05561
1 3 0.500703 -0.706716 6.24689
1 31 0.113359 0.792049 6.06787
1 17 1.11478 -0.19736 5.33287
1 35 -0.77957 -0.0267645 7.02144
1 2 0.473142 -0.367473 7.18752
1 32 -0.232319 0.450121 6.92821
1 33 0.192695 0.698852 7.7898
1 1 -0.247313 -0.692677 7.79948
1 34 -0.730103 0.321889 7.95507
ITEM: TIMESTEP
50000
ITEM: NUMBER OF ATOMS
80
ITEM: BOX BOUNDS ff ff ff
-1.0000000000000000e+01 1.0000000000000000e+01
-1.0000000000000000e+01 1.0000000000000000e+01
-5.0000000000000000e+01 5.0000000000000000e+01
ITEM: ATOMS type id x y z
1 65 0.206033 -0.116644 -10.5172
1 66 -0.374283 -0.288583 -9.72961
1 64 0.525847 -0.37382 -9.61456
1 63 0.608415 -0.0577939 -8.66679
1 67 -0.935154 0.359559 -9.22854
1 62 0.550066 0.0767849 -7.68785
1 68 -0.574708 0.776757 -8.38236
1 80 0.372512 -0.731086 -7.1366
1 69 -0.490242 0.399401 -7.4716
1 70 -0.4362 0.366808 -6.46565
1 61 0.767721 0.21263 -6.71408
1 79 0.339753 -0.734835 -6.14647
1 71 -0.556327 0.204994 -5.46031
1 60 0.544185 0.575428 -5.82056
1 72 -0.584508 -0.0314511 -4.4945
1 78 0.466297 -0.732424 -5.15835
1 59 0.230517 0.804461 -4.91183
1 73 -0.504445 -0.782258 -3.82794
1 77 0.445196 -0.550069 -4.16526
1 76 0.514079 -0.496839 -3.18354
1 47 -1.11335 0.0401861 -3.5679
1 46 -0.299173 0.375185 -3.12385
1 58 0.257781 0.517056 -3.95835
1 74 -0.430959 -1.15186 -2.90962
1 48 -1.07551 -0.406249 -2.66313
1 75 -0.0140075 -0.492799 -2.32233
1 45 -0.42483 0.575051 -2.15118
1 57 0.743457 0.88885 -3.15432
1 49 -0.790802 -0.581997 -1.71767
1 55 0.532884 0.0546707 -1.35899
1 44 -0.401029 0.694979 -1.1639
1 56 0.624052 0.387363 -2.29627
1 50 -0.575243 -1.04524 -0.853492
1 51 -0.0880141 -1.15727 0.014789
1 54 0.865607 -0.237575 -0.460469
1 43 -0.658076 -0.0641003 -0.560522
1 24 -0.256138 0.862351 0.00941751
1 52 0.0958369 -0.70274 0.880145
1 53 0.995095 -0.673664 0.436031
1 42 -0.790705 -0.130617 0.443019
1 25 -0.68535 1.0345 0.899512
1 22 0.474552 0.398381 0.981508
1 23 0.730134 0.764914 0.0652282
1 41 -0.731441 -0.419602 1.37646
1 11 0.923665 -0.572775 1.61355
1 26 -0.705479 1.16927 1.8897
1 21 0.236157 0.279119 1.94147
1 12 1.343 0.274133 1.9607
1 10 0.253502 -0.942609 2.25322
1 7 0.635294 -0.705667 2.75281
1 9 0.383185 -0.760607 3.22386
1 40 -0.663949 -0.0901786 2.31246
1 20 0.170178 0.279361 2.94434