ITEM: TIMESTEP
0
ITEM: NUMBER OF ATOMS
80
ITEM: BOX BOUNDS ff ff ff
-2.0000000000000000e+01 2.0000000000000000e+01
-2.0000000000000000e+01 2.0000000000000000e+01
-4.0000000000000000e+01 4.0000000000000000e+01
ITEM: ATOMS type id x y z
1 80 -0.47803 -4.085 -0.596936
1 68 -3.41634 -3.2224 -0.611913
1 69 -3.16955 -3.35875 -0.648425
1 73 -2.1778 -3.77099 -0.568829
1 61 -5.02787 -1.82941 -0.957158
1 62 -4.81868 -2.07798 -0.716046
1 8 6.20031 2.67447 -0.837081
1 10 6.01891 3.47489 -0.955271
1 45 -5.88504 3.87129 -0.762589
1 42 -5.31235 5.01265 -0.640086
1 14 5.31272 5.01207 -0.589197
1 28 0.000365982 7.9 -0.815824
1 26 0.915977 7.83377 -0.881388
1 21 3.06772 7.1111 -0.656768
1 74 -1.93131 -3.84435 -0.248517
1 75 -1.68601 -3.90724 0.055985
1 76 -1.44201 -3.96031 -0.301562
1 77 -1.19933 -4.00414 0.528027
1 78 -0.957883 -4.03925 0.220752
1 79 -0.717522 -4.06609 0.47652
1 65 -4.14107 -2.72297 -0.228425
1 67 -3.66117 -3.07138 -0.34613
1 70 -2.92166 -3.48107 -0.317396
1 71 -2.67337 -3.59006 0.364029
1 72 -2.42527 -3.68646 -0.0118263
1 64 -4.37386 -2.52462 -0.393429
1 59 -5.41222 -1.28215 -0.253526
1 60 -5.22624 -1.56406 -0.428295
1 55 -6.00018 0.000555938 0.19117
1 56 -5.87977 -0.341901 -0.088372
1 2 6.10013 0.355282 -0.0717076
1 51 -6.26466 1.48532 -0.359713
1 52 -6.23383 1.09976 -0.0922737
1 53 -6.17862 0.722736 -0.111947
1 3 6.17851 0.722143 -0.0629778
1 4 6.23376 1.09915 0.0307284
1 5 6.26463 1.4847 0.259797
1 48 -6.20022 2.6751 -0.353784
1 49 -6.24875 2.27494 0.205573
1 50 -6.26996 1.87768 -0.395057
1 6 6.26997 1.87705 -0.0348432
1 7 6.24881 2.27431 -0.0153736
1 46 -6.01872 3.47553 0.384527
1 47 -6.12369 3.07604 0.272497
1 9 6.12383 3.0754 0.494996
1 43 -5.53158 4.64223 0.470128
1 11 5.88528 3.87066 0.0514697
1 12 5.72289 4.26036 -0.100827
1 13 5.53191 4.64163 -0.0799878
1 41 -5.06554 5.36989 -0.0145083
1 40 -4.79196 5.71162 0.482214
1 15 5.06595 5.36933 -0.377146
1 37 -3.82234 6.62144 0.449381
1 38 -4.16899 6.33952 -0.384462
1 39 -4.49269 6.03555 0.203044
1 36 -3.45442 6.87935 -0.128019
1 20 3.45502 6.87896 -0.453413
1 19 3.82291 6.62101 -0.0358324
1 35 -3.06709 7.11145 -0.15525
1 33 -2.24245 7.4918 0.495494
1 34 -2.66237 7.31608 0.0564417
1 30 -0.915254 7.83388 -0.0755936
1 27 0.459509 7.8834 -0.218347
1 29 -0.458779 7.88345 0.217407
1 25 1.36713 7.75148 0.4468
1 24 1.81035 7.63713 0.494368
1 66 -3.90311 -2.90508 0.804348
1 63 -4.60019 -2.30969 0.664595
1 57 -5.74059 -0.67042 0.862604
1 58 -5.5842 -0.984083 0.546904
1 54 -6.10028 0.355857 0.65023
1 1 6 0 0.990403
1 44 -5.72261 4.26098 0.962331
1 16 4.79242 5.71109 0.614466
1 17 4.49319 6.03505 0.658247
1 18 4.16953 6.33906 0.945315
1 32 -1.80965 7.63734 0.832931
1 31 -1.36641 7.75164 0.673984
1 22 2.66302 7.31578 0.609796
1 23 2.24313 7.49155 0.978883
ITEM: TIMESTEP
5000
ITEM: NUMBER OF ATOMS
80
ITEM: BOX BOUNDS ff ff ff
-2.0000000000000000e+01 2.0000000000000000e+01
-2.0000000000000000e+01 2.0000000000000000e+01
-4.0000000000000000e+01 4.0000000000000000e+01
ITEM: ATOMS type id x y z
1 63 -5.70515 -2.52223 -1.63978
1 70 -1.98045 -4.28436 -1.44431
1 71 -1.07459 -3.8594 -1.27986
1 69 -2.89099 -4.48957 -1.09072
1 72 -0.22603 -4.3725 -1.37652
1 68 -2.16553 -3.793 -0.958858
1 62 -6.58534 -2.25898 -1.24431
1 64 -5.02944 -2.75332 -0.969194
1 66 -3.6211 -2.62249 -1.38406
1 67 -2.72089 -3.04868 -1.29649
1 9 6.82129 1.90032 -0.276117
1 12 5.56754 3.51151 -0.935262
1 11 6.48742 3.4555 -0.614993
1 15 4.23134 5.71301 -0.442009
1 21 2.03677 4.94078 -0.736352
1 20 2.98254 5.16748 -0.978563
1 73 -0.669119 -4.18712 -0.502985
1 65 -4.17375 -2.39463 -0.568018
1 74 -0.876824 -3.81903 0.396537
1 75 -0.133488 -3.25422 0.0542109
1 61 -6.04645 -1.75188 -0.578723
1 58 -6.72217 -0.756947 0.100636
1 60 -5.67901 -0.877234 -0.244597
1 57 -5.96007 -1.13631 0.62378
1 1 4.65337 -0.606879 0.243544
1 56 -5.51662 -0.239369 0.763608
1 59 -6.47007 -0.854197 -0.859909
1 55 -5.39241 0.235599 -0.10949
1 2 5.64884 -0.534908 0.307056
1 3 6.52758 -0.0428643 0.437669
1 53 -5.56105 1.9904 -0.337189
1 52 -6.30769 1.53539 0.152564
1 50 -5.74837 2.0065 0.674976
1 54 -5.03644 1.17486 -0.132688
1 4 6.33461 0.922456 0.607815
1 6 5.3424 2.57326 0.480338
1 10 7.1033 2.83427 -0.11569
1 7 6.15482 2.92668 0.957423
1 8 6.05075 2.30726 0.184351
1 46 -7.09152 4.01468 0.557232
1 45 -6.87853 4.55755 -0.266101
1 44 -5.92842 4.25105 -0.276286
1 43 -5.05925 4.47 0.152439
1 42 -4.06468 4.48465 0.283844
1 14 4.83463 4.92411 -0.58744
1 13 4.71454 4.04246 -1.05656
1 39 -4.19901 5.38176 0.0823381
1 19 2.71754 5.54993 -0.0850261
1 38 -3.67445 6.0714 -0.449569
1 35 -3.12392 5.98945 0.900117
1 24 1.08514 6.83154 1.09359
1 22 2.13075 5.60105 0.0220226
1 18 3.10981 6.26813 0.493463
1 16 4.62738 6.61606 -0.342716
1 37 -3.1387 6.87794 -0.73829
1 33 -1.60791 6.5606 0.486906
1 32 -1.30918 7.46958 0.188413
1 28 -0.74674 8.34762 0.27462
1 27 0.197049 8.29484 -0.0183032
1 25 1.19368 6.88638 0.0957835
1 26 0.956745 7.74332 -0.356865
1 29 -1.6619 8.52502 0.638675
1 77 -0.517711 -4.83942 0.419601
1 78 0.441907 -5.06092 0.306041
1 76 -0.5056 -3.88611 0.733405
1 79 0.889725 -4.16155 0.368747
1 80 1.34286 -3.31161 0.612107
1 51 -6.3858 1.36405 1.13594
1 49 -4.94438 2.58859 0.758692
1 48 -5.93587 2.50703 0.848148
1 5 5.77966 1.73545 0.824748
1 47 -6.71837 3.09329 0.64034
1 41 -3.66055 4.57742 1.20195
1 40 -4.23614 5.38082 1.09137
1 36 -2.98034 6.73397 0.249699
1 34 -2.38188 6.6244 1.13119
1 23 1.75934 6.18944 0.745451
1 17 4.09863 6.47455 0.485792
1 31 -1.50443 7.35371 1.16702
1 30 -1.60821 8.26426 1.58998
ITEM: TIMESTEP
10000
ITEM: NUMBER OF ATOMS
80
ITEM: BOX BOUNDS ff ff ff
-2.0000000000000000e+01 2.0000000000000000e+01
-2.0000000000000000e+01 2.0000000000000000e+01
-4.0000000000000000e+01 4.0000000000000000e+01
ITEM: ATOMS type id x y z
1 71 -1.0163 -3.11789 -2.30926
1 70 -1.61651 -3.86666 -2.04317
1 68 -2.77604 -2.80399 -2.049
1 69 -2.58955 -3.76975 -1.81473
1 72 -0.123229 -3.48436 -2.06621
1 67 -2.92058 -1.86778 -1.75754
1 65 -3.66257 -2.84586 -1.23334
1 73 -0.471515 -3.36386 -1.12928
1 62 -6.00104 -1.80841 -0.949972
1 63 -5.33323 -2.51169 -0.655585
1 64 -4.35777 -2.31589 -0.735608
1 66 -2.69842 -2.813 -1.51677
1 60 -6.6106 -0.804683 -0.428709
1 53 -5.2813 0.848697 -0.957278
1 8 5.39621 1.95982 -1.29343
1 10 6.50331 2.60188 -1.03952
1 9 6.24599 2.04042 -1.81533
1 13 4.42221 3.50873 -1.05921
1 43 -4.92662 4.97074 -0.025922
1 14 4.18829 4.2777 -0.476479
1 38 -3.62933 5.69667 -0.909681
1 20 1.87902 5.21034 -0.896702
1 15 4.28615 5.20485 -0.860873
1 37 -3.21601 6.39721 -0.311311
1 74 -0.68509 -3.39049 -0.146201
1 59 -7.38807 -0.861904 0.195337
1 57 -5.70174 -0.1713 0.343662
1 61 -5.66026 -1.11565 -0.337237
1 56 -4.97789 -0.63773 0.852573
1 55 -4.37407 -0.185484 0.207745
1 2 6.60837 -0.375384 0.207727
1 51 -6.12312 1.65266 0.515035
1 52 -5.54646 1.01766 -0.000417908
1 54 -4.59114 0.658568 -0.278235
1 7 5.02378 1.79094 -0.383639
1 45 -5.94564 3.64596 0.698942
1 41 -3.76422 3.73202 0.239304
1 12 5.13921 3.00639 -0.586959
1 11 6.07015 2.99803 -0.23069
1 44 -5.37173 4.0868 0.00193497
1 42 -4.64862 4.14646 0.479518
1 40 -3.20638 4.44082 -0.172994
1 21 1.39551 5.26729 -0.0349305
1 39 -3.72247 4.70293 -0.986609
1 22 2.23331 5.52872 0.443767
1 19 2.86709 5.3459 -0.886413
1 18 3.751 5.82095 -1.01362
1 17 4.66034 5.98219 -0.603425
1 16 5.28991 5.19136 -0.711864
1 25 -0.103574 6.37053 0.940803
1 36 -3.03872 7.22235 0.224846
1 27 -0.619513 7.9726 0.372632
1 75 -1.15102 -3.68011 0.682181
1 76 -0.854376 -4.50357 1.18036
1 78 0.36231 -3.82779 0.805822
1 79 1.33643 -3.98951 1.00841
1 77 -0.499829 -3.57579 1.26399
1 80 2.17711 -3.46498 0.865546
1 58 -6.60355 -0.46784 0.6554
1 1 7.09713 -0.929362 0.876906
1 3 6.90113 0.551197 0.433066
1 50 -5.34206 1.33766 1.04161
1 4 5.96538 0.762583 0.712979
1 5 5.05025 0.858655 1.11855
1 48 -5.39314 2.34776 0.566214
1 49 -4.60485 1.73167 0.498191
1 6 5.06396 1.73468 0.624021
1 46 -6.01299 2.9451 1.39686
1 47 -5.03419 3.02168 1.18889
1 35 -2.64779 6.92258 1.10284
1 34 -2.33578 6.0798 1.56259
1 31 -1.50603 6.18633 1.33985
1 24 0.811664 6.07714 1.2272
1 23 1.78374 6.15356 1.06391
1 30 -1.55585 7.04033 1.85742
1 26 -0.0812743 7.37056 0.951221
1 28 -0.703321 8.66747 1.08522
1 33 -2.45401 5.11132 1.77627
1 32 -1.48757 5.35943 1.9142
1 29 -0.995223 7.77861 1.45491
ITEM: TIMESTEP
15000
ITEM: NUMBER OF ATOMS
80
ITEM: BOX BOUNDS ff ff ff
-2.0000000000000000e+01 2.0000000000000000e+01
-2.0000000000000000e+01 2.0000000000000000e+01
-4.0000000000000000e+01 4.0000000000000000e+01
ITEM: ATOMS type id x y z
1 70 -1.3106 -3.3955 -2.24918
1 72 -0.0169562 -2.1661 -1.89914
1 66 -3.05166 -2.29972 -1.3182
1 71 -0.613103 -2.71247 -2.48068
1 11 6.3206 2.97237 -1.92029
1 74 -0.510801 -3.27615 -0.788382
1 65 -3.95066 -2.61204 -1.63583
1 68 -1.34963 -2.6962 -0.525428
1 69 -1.18889 -2.7281 -1.5078
1 73 -0.237505 -2.33117 -0.961206
1 67 -2.3294 -2.55152 -0.667773
1 52 -5.3296 1.06113 -0.6873
1 53 -4.40411 1.27991 -1.00742
1 8 4.35894 2.50428 -0.921714
1 10 5.56705 2.3467 -1.66987
1 9 4.70201 1.8651 -1.61407
1 13 4.69967 3.61099 -1.81133
1 12 5.46353 3.09153 -1.43597
1 39 -3.15344 4.41795 -0.155275
1 41 -3.2028 3.01186 -0.798638
1 40 -3.07381 3.97145 -1.047
1 20 2.86769 4.30746 -1.24674
1 21 2.1735 4.98052 -0.970561
1 14 4.16331 4.42852 -2.0127
1 15 4.59213 4.47694 -1.09876
1 19 3.07364 4.79629 -0.410113
1 75 -0.867052 -4.12078 -0.35861
1 63 -4.8929 -2.33432 -0.0269913
1 80 1.75487 -2.4164 0.381016
1 61 -6.35636 -1.94535 -0.297056
1 62 -5.8 -2.75299 -0.0300718
1 64 -4.51813 -2.79258 -0.841405
1 60 -6.58358 -1.08089 0.146868
1 55 -4.85588 -0.520847 -0.665805
1 1 6.39386 0.0941767 0.431609
1 54 -4.30701 0.288477 -0.887643
1 59 -5.79107 -0.672714 0.57779
1 56 -4.51225 -1.23097 -0.0392881
1 2 5.41749 0.296202 0.427546
1 51 -4.75904 0.744157 0.0677534
1 7 4.57022 1.92965 -0.115721
1 6 5.03592 2.59649 0.467057
1 45 -5.63114 3.48927 0.0512427
1 42 -3.72178 3.3524 -0.0104853
1 44 -5.23021 4.38341 -0.157024
1 43 -4.26207 4.14315 -0.255301
1 22 1.6276 4.77462 -0.148918
1 16 4.37885 3.89495 -0.315948
1 38 -3.54281 4.8385 0.670024
1 37 -2.8805 5.6062 0.711904
1 25 -0.143762 5.94681 0.311157
1 23 1.21088 5.40261 0.502181
1 18 2.73727 4.51133 0.477147
1 17 3.67961 4.46129 0.134038
1 26 0.0436111 6.83496 0.733153
1 27 -0.551307 7.56889 0.486899
1 76 -0.444931 -4.85294 0.185403
1 77 0.169331 -4.07368 0.277535
1 78 0.57839 -3.16934 0.219812
1 79 0.881518 -2.47345 0.867299
1 58 -5.26876 0.131605 0.863426
1 57 -4.59776 -0.575753 0.70123
1 50 -4.40195 1.58112 0.493428
1 49 -3.72833 1.59515 1.22261
1 4 4.37958 1.50053 1.62061
1 3 4.86315 0.950549 0.934959
1 46 -5.59024 2.77468 0.733805
1 5 4.23211 2.19059 0.911523
1 47 -5.34395 2.28226 1.5721
1 35 -2.83424 4.56111 1.74356
1 36 -2.78807 5.56116 1.70274
1 24 0.327299 5.33983 0.955712
1 28 -1.04431 7.79392 1.32427
1 48 -4.48377 1.87106 1.83935
1 34 -3.34619 5.36214 2.07034
1 33 -2.91017 5.93052 2.7814
1 31 -1.00801 5.887 2.31054
1 32 -1.9323 5.7163 2.68523
1 30 -0.226909 6.20033 1.76606
1 29 -0.58033 7.11311 1.90164
ITEM: TIMESTEP
20000
ITEM: NUMBER OF ATOMS
80
ITEM: BOX BOUNDS ff ff ff
-2.0000000000000000e+01 2.0000000000000000e+01
-2.0000000000000000e+01 2.0000000000000000e+01
-4.0000000000000000e+01 4.0000000000000000e+01
ITEM: ATOMS type id x y z
1 70 -1.07128 -2.95025 -1.41499
1 68 -2.54145 -1.93949 -1.46902
1 69 -2.01402 -2.75581 -1.68092
1 71 -0.259441 -2.37169 -1.32727
1 72 0.564222 -1.839 -1.51411
1 11 5.37675 2.40976 -1.99845
1 12 4.6848 2.99158 -2.40579
1 13 4.79341 3.84218 -1.88672
1 75 0.144574 -3.66418 -1.67743
1 65 -3.59256 -3.1089 -0.740494
1 76 0.140554 -3.19897 -0.800306
1 74 1.07577 -3.30883 -1.50527
1 66 -3.78377 -2.3652 -1.36448
1 67 -3.21048 -1.82577 -0.749946
1 73 1.33863 -2.39289 -1.19371
1 55 -4.09401 -0.692784 -0.775161
1 54 -3.45649 0.0462338 -0.964256
1 51 -5.03114 1.41031 -0.484671
1 53 -3.33127 1.01568 -0.847392
1 8 4.41759 1.63943 -1.44914
1 52 -4.05507 1.63166 -0.573126
1 42 -2.92476 2.74521 -1.29441
1 10 5.70199 1.93864 -1.16667
1 41 -2.29124 3.20965 -1.89991
1 40 -1.92011 3.85158 -1.20963
1 14 4.29582 3.52754 -1.08926
1 39 -1.82649 3.72774 -0.231401
1 23 -0.534672 4.42742 -0.895822
1 22 0.202896 3.91193 -0.445354
1 21 1.19191 3.81967 -0.488558
1 64 -4.40549 -3.17385 -0.178499
1 77 0.137373 -3.22817 0.209725
1 62 -5.26049 -1.43172 0.0769544
1 63 -4.92145 -2.36429 0.0960487
1 60 -6.48371 -0.0741353 0.101989
1 61 -6.1401 -0.991025 -0.0561333
1 56 -4.23464 -1.52231 -0.241631
1 59 -5.79357 0.0638056 0.817564
1 57 -4.66216 -0.61639 -0.350676
1 50 -4.09051 1.31001 -0.181207
1 6 4.01439 1.57 0.467072
1 9 5.10228 1.20213 -0.862481
1 7 4.22269 1.80359 -0.478246
1 44 -4.38203 2.68298 -0.0346462
1 43 -3.47304 2.7523 -0.453446
1 38 -2.12858 4.42542 0.414637
1 24 -0.149578 4.90976 -0.101843
1 20 2.18266 3.73366 -0.385029
1 19 2.61521 4.5806 -0.0557526
1 16 3.40887 4.3523 0.385901
1 15 3.71074 4.10058 -0.525683
1 18 2.74877 5.53604 -0.273289
1 17 2.75674 5.07242 0.604868
1 78 1.0976 -2.98489 0.364832
1 79 1.64761 -2.16695 0.550235
1 58 -4.86728 -0.0182629 0.435571
1 80 0.796444 -1.7594 0.248807
1 1 4.88763 0.170079 1.55007
1 49 -3.99744 1.33473 0.80729
1 2 4.20059 0.494249 0.904588
1 5 3.75481 1.47356 1.43524
1 45 -4.77599 2.63111 0.888132
1 46 -4.31221 3.17718 1.58431
1 35 -2.77882 3.76117 1.30548
1 37 -3.03037 4.75437 0.737674
1 25 -0.133104 5.80288 0.324938
1 26 -0.124691 6.76866 0.0501767
1 27 -0.490258 7.57007 0.519149
1 28 -0.474204 7.46111 1.50353
1 3 4.16017 -0.0203828 1.75599
1 4 3.54988 0.718934 2.0527
1 48 -4.45663 1.81214 1.55473
1 47 -4.29974 2.46761 2.28531
1 36 -3.60338 4.31459 1.43094
1 34 -2.46885 4.48639 1.92934
1 30 -0.218103 6.04579 2.40556
1 29 -0.0583211 7.0366 2.3294
1 33 -2.16216 4.20732 2.84751
1 32 -1.48371 4.87987 3.16888
1 31 -0.613501 5.27712 2.8474
ITEM: TIMESTEP
25000
ITEM: NUMBER OF ATOMS
80
ITEM: BOX BOUNDS ff ff ff
-2.0000000000000000e+01 2.0000000000000000e+01
-2.0000000000000000e+01 2.0000000000000000e+01
-4.0000000000000000e+01 4.0000000000000000e+01
ITEM: ATOMS type id x y z
1 68 -2.51161 -0.829154 -2.88117
1 75 -0.153883 -3.83236 -1.12256
1 66 -3.54387 -1.66801 -1.46366
1 73 1.11958 -2.45126 -1.72444
1 67 -2.83207 -1.2688 -2.04128
1 69 -1.66379 -0.813145 -2.34707
1 70 -1.32862 -1.51541 -1.70966
1 10 4.83589 1.57615 -2.03521
1 12 3.69242 2.91677 -1.99515
1 13 4.34432 3.63312 -2.18293
1 76 -0.524797 -4.21408 -0.270219
1 74 0.35186 -3.03211 -1.46369
1 65 -4.50651 -1.80579 -1.22795
1 71 -0.885176 -2.40115 -1.70349
1 72 0.125124 -2.4027 -1.74487
1 57 -4.244 -0.709497 -0.0724199
1 53 -3.37009 0.40843 -1.22888
1 54 -3.1801 0.208514 -0.259073
1 51 -3.78581 1.81891 -0.999768
1 41 -2.41127 2.15232 0.182387
1 20 2.24699 2.77794 -0.497619
1 11 3.93745 1.97354 -2.24861
1 9 4.2283 1.55557 -1.23733
1 43 -3.75369 3.01485 -0.861445
1 42 -3.23547 2.64749 -0.0965705
1 14 4.25986 4.31585 -1.44676
1 25 0.113094 5.64795 -0.967108
1 77 0.424477 -4.20717 -0.58517
1 78 1.04185 -3.75039 0.0506079
1 62 -5.56868 -1.85828 -0.408352
1 64 -4.48391 -2.35003 -0.382868
1 63 -5.08443 -2.18523 0.388199
1 61 -5.51358 -0.963084 0.0437155
1 56 -3.55116 -1.27076 0.352934
1 55 -3.21471 -0.766921 -0.448345
1 60 -5.65338 -0.149618 0.597037
1 58 -5.004 -0.568465 0.551085
1 49 -4.30645 1.12645 -0.0750936
1 52 -3.32995 1.08076 -0.506081
1 50 -4.39254 2.09645 -0.277622
1 21 1.25045 2.77149 -0.495269
1 8 4.51353 1.75776 -0.298352
1 7 3.97948 2.27121 0.376119
1 44 -3.44573 3.42946 7.81166e-05
1 40 -1.69435 2.8112 0.333912
1 39 -1.5055 3.61008 0.908355
1 22 0.404776 3.28898 -0.363259
1 19 2.85223 3.54522 -0.693099
1 38 -1.7566 4.31673 0.230073
1 23 0.436108 4.28969 -0.288801
1 15 4.13036 3.82334 -0.587744
1 18 2.87625 3.90156 0.248609
1 24 -0.339503 4.79666 -0.672211
1 26 -0.144541 6.14456 -0.130667
1 79 1.89871 -3.44657 0.474689
1 80 2.17054 -2.50237 0.692182
1 59 -5.04716 0.00123015 1.37474
1 4 3.10205 -0.10224 1.86387
1 1 5.06124 -0.0108357 1.78215
1 48 -3.82266 1.34909 0.776267
1 5 3.31064 0.780352 1.44563
1 6 3.86528 1.50785 1.02252
1 45 -3.79941 2.68347 0.573894
1 36 -3.22429 4.20832 0.69192
1 35 -2.55107 4.28214 1.42603
1 17 2.98553 4.88551 0.336304
1 16 3.48331 4.04491 0.13709
1 37 -2.46824 4.86042 0.667071
1 27 -0.320704 6.9183 0.478077
1 28 -1.03186 6.56259 1.11814
1 3 3.85708 -0.516998 2.38735
1 2 4.35786 0.351648 2.35816
1 47 -3.85074 1.93718 1.57899
1 46 -3.07943 2.47105 1.22381
1 34 -2.23382 4.93852 2.12719
1 33 -1.46879 4.89466 2.77044
1 29 -1.07546 6.53982 2.12572
1 30 -0.882854 5.68026 2.62623
1 32 -1.19691 4.38325 3.57342
1 31 -0.586952 5.16806 3.41721
ITEM: TIMESTEP
30000
ITEM: NUMBER OF ATOMS
80
ITEM: BOX BOUNDS ff ff ff
-2.0000000000000000e+01 2.0000000000000000e+01
-2.0000000000000000e+01 2.0000000000000000e+01
-4.0000000000000000e+01 4.0000000000000000e+01
ITEM: ATOMS type id x y z
1 67 -2.55519 -2.36649 -2.31163
1 11 2.77818 1.82054 -2.40016
1 75 1.21437 -4.4849 -1.86437
1 66 -3.35789 -2.90297 -2.09714
1 74 1.03227 -3.60965 -2.31738
1 64 -4.31154 -2.50529 -2.00553
1 65 -4.08378 -3.18698 -2.70432
1 72 0.083624 -2.16702 -2.764
1 73 0.720099 -2.67114 -2.18462
1 68 -2.82376 -1.41675 -2.51526
1 69 -2.03652 -0.877611 -2.17381
1 71 -0.502332 -1.86418 -2.01326
1 10 3.56538 1.25667 -2.18368
1 12 2.56481 2.78788 -2.54325
1 13 3.53061 2.96964 -2.45871
1 76 1.61721 -4.30518 -0.957504
1 63 -4.60046 -1.87463 -1.27871
1 62 -5.08541 -1.74414 -0.401325
1 56 -3.20124 -1.4053 -1.08144
1 70 -1.0565 -1.03891 -2.03063
1 53 -2.29584 0.279863 -0.884092
1 51 -3.23383 1.76983 -0.661133
1 52 -2.6584 1.1537 -1.19037
1 8 3.40657 0.873684 -0.694131
1 9 3.54154 0.442398 -1.58468
1 43 -3.20376 3.17054 -0.947524
1 14 4.01524 3.38728 -1.69357
1 16 2.9212 4.76505 -0.831932
1 15 3.39489 3.92682 -1.11387
1 77 1.57612 -3.77891 -0.113567
1 78 1.53445 -3.98909 0.862213
1 61 -5.31113 -0.957294 0.178166
1 57 -3.97517 -1.29091 -0.454482
1 58 -4.4885 -0.687841 0.162094
1 55 -2.3172 -0.939775 -0.944008
1 54 -1.95664 -0.37826 -0.173807
1 50 -3.31413 1.36599 0.238357
1 44 -3.67867 2.60268 -0.303362
1 21 0.681895 2.86461 0.066062
1 7 3.21485 1.39972 0.138269
1 42 -3.29913 3.50255 -0.0193447
1 22 0.326307 3.16568 0.945286
1 20 1.19643 3.7176 0.0655886
1 19 1.33398 4.28901 0.884795
1 36 -2.51456 4.76472 -0.0365277
1 24 -0.759197 4.45744 -0.0362121
1 23 -0.0907563 3.9535 0.506679
1 18 1.98534 4.64626 0.213027
1 25 -0.45038 5.33043 0.356026
1 26 -0.0951044 6.22809 0.616276
1 17 2.01081 5.14806 -0.646548
1 79 1.84103 -3.04409 1.03536
1 80 2.24774 -3.18217 1.92966
1 60 -5.50937 -0.58739 1.08994
1 59 -4.51469 -0.525651 1.14619
1 49 -3.91663 1.70015 0.970808
1 6 3.09264 0.867038 0.967095
1 5 2.6412 1.22872 1.78741
1 46 -3.34987 2.43315 1.59882
1 45 -3.32449 2.66526 0.620883
1 41 -2.44803 3.22256 0.448091
1 40 -1.58654 3.19397 0.968182
1 39 -0.929876 2.95443 1.66966
1 38 -1.33062 3.62332 1.03586
1 37 -1.77949 4.2485 0.400386
1 35 -2.16132 5.01277 0.864658
1 27 0.538206 6.89213 1.02923
1 48 -3.85901 1.26343 1.84826
1 47 -3.64735 2.02937 2.44487
1 4 3.10929 0.996599 2.65728
1 34 -1.89526 4.49572 1.66887
1 33 -1.38838 3.87963 2.2732
1 32 -0.75496 4.08544 3.00987
1 30 -0.419347 5.16241 2.14788
1 29 -0.299312 5.95639 1.5461
1 28 -0.365372 6.95659 1.43531
1 2 3.72127 0.167681 3.35546
1 1 3.59992 -0.763225 3.01203
1 3 4.02094 1.06236 3.07583
1 31 0.0948763 4.4543 2.61616
ITEM: TIMESTEP
35000
ITEM: NUMBER OF ATOMS
80
ITEM: BOX BOUNDS ff ff ff
-2.0000000000000000e+01 2.0000000000000000e+01
-2.0000000000000000e+01 2.0000000000000000e+01
-4.0000000000000000e+01 4.0000000000000000e+01
ITEM: ATOMS type id x y z
1 70 -1.1006 -1.05404 -2.21207
1 71 -0.287259 -1.33369 -2.71212
1 74 0.215477 -3.22363 -1.80609
1 73 0.437654 -2.556 -2.5186
1 64 -5.16254 -0.995018 -1.75893
1 67 -2.9714 -2.63398 -1.55889
1 69 -1.51003 -1.95904 -2.24484
1 68 -2.10511 -2.75086 -2.02927
1 72 0.682713 -1.59622 -2.68285
1 63 -5.81373 -1.19039 -1.03644
1 65 -4.2736 -1.44689 -1.84965
1 66 -3.38304 -1.87856 -2.07028
1 10 3.46796 1.16618 -1.48463
1 12 3.66009 2.69587 -1.34415
1 11 3.21078 2.02414 -1.92393
1 14 4.1372 3.53161 -1.67954
1 75 -0.21229 -3.92747 -1.23463
1 77 1.17796 -4.46905 -0.409538
1 62 -6.43347 -0.81819 -0.340303
1 56 -2.72737 -1.26048 -1.267
1 55 -2.24759 -0.809868 -2.02491
1 54 -2.22908 -0.124958 -1.28684
1 9 3.09232 0.314788 -1.10664
1 43 -3.49177 3.21532 -0.0651808
1 13 3.13067 3.44461 -1.71275
1 15 4.1247 4.26069 -1.01663
1 16 3.58671 5.08612 -0.816981
1 76 0.191737 -4.45146 -0.478588
1 78 1.33769 -3.91447 0.423754
1 61 -5.6375 -1.18067 0.120109
1 60 -4.84129 -0.623551 0.358526
1 59 -3.99636 -1.13231 0.526388
1 58 -3.48946 -1.60847 -0.163992
1 57 -2.49487 -1.58049 -0.341273
1 53 -2.07081 0.666078 -0.676186
1 8 2.24574 0.0720629 -0.648172
1 52 -2.3886 1.40204 -0.0862467
1 7 2.40813 0.793609 0.0207695
1 51 -1.64274 1.84799 0.433308
1 40 -0.947601 2.72853 -0.157795
1 44 -3.1282 2.59066 0.626928
1 42 -2.60317 3.01442 -0.472069
1 41 -1.65433 3.17845 -0.701097
1 39 -0.938398 2.77484 0.843943
1 21 0.00760173 4.03096 1.07671
1 24 0.100829 4.47231 0.274549
1 18 2.85577 3.69185 0.406
1 17 3.21095 4.39596 -0.197994
1 25 -0.713063 5.05492 0.254917
1 26 0.283413 5.10586 0.335458
1 79 1.59835 -3.58513 1.32435
1 80 2.51424 -3.96962 1.29471
1 4 3.58724 0.0814271 0.915764
1 49 -2.90382 0.612079 1.14542
1 50 -2.12027 0.991544 0.642031
1 6 1.87257 0.979427 0.837074
1 5 2.77559 0.597055 0.649292
1 46 -3.43002 2.00301 2.29232
1 45 -3.51979 2.65161 1.54677
1 38 -1.83522 2.83421 1.30107
1 22 0.215989 3.15282 0.617708
1 36 -2.79613 4.29822 0.545976
1 37 -2.39981 3.39013 0.70914
1 23 0.0880383 3.61566 -0.249986
1 20 1.01296 3.99923 1.00593
1 19 1.99311 3.88451 0.872834
1 35 -2.67682 5.19631 0.946764
1 29 -0.453236 6.12972 1.90012
1 27 0.504441 5.9248 0.829415
1 28 -0.320929 6.44905 0.95134
1 1 4.35767 -0.746104 2.62165
1 3 4.47451 0.165774 1.39815
1 2 4.92019 0.00252545 2.27838
1 48 -3.69617 0.906019 1.69417
1 47 -4.32559 1.63653 1.99356
1 34 -2.24502 4.80882 1.75554
1 31 -0.273127 4.41021 2.77874
1 30 -0.261889 5.18936 2.14426
1 33 -1.95723 4.01252 2.29507
1 32 -1.0437 3.77782 2.64853
ITEM: TIMESTEP
40000
ITEM: NUMBER OF ATOMS
80
ITEM: BOX BOUNDS ff ff ff
-2.0000000000000000e+01 2.0000000000000000e+01
-2.0000000000000000e+01 2.0000000000000000e+01
-4.0000000000000000e+01 4.0000000000000000e+01
ITEM: ATOMS type id x y z
1 70 -0.927925 -1.36038 -3.50437
1 69 -1.49027 -1.24202 -2.67351
1 71 0.010962 -1.58629 -3.78307
1 72 0.531408 -1.21187 -2.99068
1 73 0.896193 -1.57005 -2.13144
1 74 0.968183 -2.5722 -2.11017
1 65 -4.36023 -1.38872 -0.973346
1 68 -2.29315 -1.2448 -2.06343
1 9 1.95316 0.506151 -1.83983
1 12 4.38479 1.25267 -1.8928
1 76 1.80409 -3.81736 -1.16341
1 75 1.05167 -3.5001 -1.7472
1 63 -5.71704 -0.918021 -0.455917
1 64 -5.07457 -0.702621 -1.18639
1 66 -3.44783 -1.30814 -1.38904
1 67 -2.51844 -1.14948 -1.10301
1 56 -2.32845 -0.440242 -0.459872
1 54 -1.43333 0.560871 -1.77166
1 55 -1.6827 -0.220532 -1.19096
1 10 2.90121 0.365866 -1.61061
1 53 -2.0638 0.996934 -1.12975
1 8 1.51591 0.932521 -1.0465
1 7 2.37624 0.781245 -0.531241
1 11 3.49435 0.923202 -2.17589
1 42 -2.86133 2.7334 -1.03398
1 41 -1.94379 3.11381 -0.927641
1 13 4.59894 2.04152 -1.32606
1 24 -0.577581 3.79007 -1.41912
1 23 -0.00510105 3.28856 -0.752881
1 14 3.79154 2.59409 -1.0265
1 77 1.42176 -4.52969 -0.559721
1 78 0.861838 -4.66617 0.271288
1 61 -5.46327 -0.360445 0.6491
1 60 -4.47533 -0.15616 0.613867
1 59 -3.57939 -0.549658 0.479848
1 57 -2.60901 -0.77431 0.431394
1 62 -5.83143 0.0449939 -0.184032
1 52 -2.04187 1.26045 -0.157051
1 51 -1.18079 0.928251 0.214172
1 6 2.41987 1.48172 0.161515
1 44 -3.25879 2.36495 0.445447
1 40 -1.18079 2.59057 -0.539263
1 43 -3.1348 3.15193 -0.168653
1 22 0.238442 2.46389 -0.235464
1 17 2.73689 4.01467 0.667233
1 15 3.37809 3.43549 -0.659251
1 25 -1.18007 3.86347 -0.626291
1 16 3.61082 3.86087 0.200328
1 26 -0.698693 4.43868 0.0263723
1 27 0.271572 4.6971 0.0591933
1 79 1.42218 -4.09081 0.883693
1 58 -3.11598 -0.903574 1.28973
1 49 -1.86545 0.387838 1.89343
1 50 -1.38374 0.334281 1.01949
1 5 3.37418 1.49069 0.391823
1 4 3.41956 1.15735 1.34087
1 45 -4.12517 2.1491 0.877622
1 38 -1.74728 2.60906 1.37786
1 39 -1.42898 2.67426 0.424729
1 36 -3.23879 3.03333 1.5143
1 35 -2.92529 3.93683 1.21561
1 21 1.00922 2.66794 0.364007
1 18 2.33742 3.45755 1.40224
1 34 -2.36944 4.5936 1.71344
1 19 1.4224 3.68881 1.69895
1 29 0.0834409 5.50197 1.44351
1 28 0.667416 4.82572 0.960283
1 80 1.68741 -3.77882 1.80054
1 3 3.95857 0.609369 1.99441
1 47 -3.81994 0.624059 1.65595
1 48 -2.8412 0.443423 1.66069
1 46 -3.65773 1.60453 1.56396
1 37 -2.44801 2.80936 2.07309
1 20 1.07243 2.8054 1.34167
1 33 -2.33924 4.09728 2.58626
1 30 -0.800404 5.33733 1.90177
1 2 4.24079 -0.188329 2.5422
1 1 5.1097 -0.321199 3.02645
1 32 -1.65149 4.36451 3.25944
1 31 -1.25778 4.57382 2.37258
ITEM: TIMESTEP
45000
ITEM: NUMBER OF ATOMS
80
ITEM: BOX BOUNDS ff ff ff
-2.0000000000000000e+01 2.0000000000000000e+01
-2.0000000000000000e+01 2.0000000000000000e+01
-4.0000000000000000e+01 4.0000000000000000e+01
ITEM: ATOMS type id x y z
1 70 -1.61073 -1.41545 -4.20362
1 71 -0.659075 -1.73744 -4.33792
1 74 1.12723 -1.97469 -2.98986
1 69 -2.46947 -1.59493 -3.72323
1 72 0.0720349 -1.37657 -3.76355
1 73 1.00604 -1.11695 -3.49405
1 75 0.712142 -2.51917 -2.26117
1 67 -2.844 -1.30759 -1.79288
1 68 -2.70137 -1.36876 -2.7685
1 9 2.43953 0.631398 -1.30427
1 10 2.95236 1.48368 -1.27471
1 11 3.45818 0.832883 -1.82136
1 12 4.08019 1.60959 -1.99229
1 76 0.295706 -2.99226 -1.48984
1 63 -4.32927 -1.74829 -0.613495
1 64 -3.75039 -1.01814 -0.974632
1 66 -3.58633 -1.30204 -1.11856
1 65 -2.80645 -0.666919 -0.983992
1 54 -2.67732 0.48339 -0.574688
1 53 -2.07942 0.713731 -1.32813
1 52 -1.19104 0.939979 -0.913115
1 8 1.55044 0.887456 -0.935219
1 43 -2.03963 1.88798 -0.837388
1 13 3.63056 2.17934 -1.31257
1 42 -1.72153 2.74057 -1.23377
1 14 3.65307 2.94088 -0.668026
1 15 2.79965 2.55718 -1.01393
1 77 0.733587 -3.33763 -0.6631
1 78 0.807875 -3.18404 0.325893
1 62 -4.93476 -1.04458 -0.969583
1 56 -2.31403 -1.07776 0.542816
1 55 -2.44555 -0.164994 0.153369
1 61 -4.98175 -0.934148 0.0263906
1 7 1.5358 0.922048 0.0752635
1 45 -3.7382 1.77595 0.0498452
1 51 -1.60247 1.24924 -0.0527612
1 44 -2.8777 1.58815 -0.398541
1 41 -0.887706 2.56586 -0.726283
1 39 -1.18215 2.35083 -0.117797
1 40 -0.303365 1.88697 -0.330542
1 23 0.311816 2.19796 0.544414
1 25 -0.961357 3.7007 0.36734
1 16 3.30256 2.7735 -0.188578
1 28 -0.963894 4.61105 0.121658
1 26 -0.780203 4.35588 -0.379436
1 27 0.0262094 4.5129 0.190808
1 29 -0.640387 5.28009 0.807339
1 79 0.701365 -3.50108 1.27716
1 58 -3.21095 -0.389591 1.89695
1 57 -2.63792 -1.09276 1.48288
1 60 -4.70165 -0.484673 0.868436
1 59 -3.8423 -0.080017 1.17621
1 5 2.95435 0.622254 1.48164
1 4 3.79308 0.122652 1.63382
1 49 -1.73121 1.20165 1.7717
1 50 -1.61068 0.816202 0.86485
1 6 2.29667 0.754677 0.735271
1 46 -3.26572 1.93474 0.920085
1 38 -0.898781 2.21971 0.834144
1 22 0.444642 1.7514 1.42742
1 35 -2.45326 3.5773 1.25445
1 36 -1.76715 2.88806 1.00254
1 37 -0.933692 2.90437 1.55646
1 24 -0.302995 2.99621 0.588357
1 18 2.67582 2.96017 0.395878
1 17 3.53962 3.44272 0.519252
1 19 2.45922 3.46669 1.24111
1 30 -1.07058 4.83534 1.59975
1 80 0.741198 -4.29309 1.88753
1 3 4.73795 -0.210826 1.63454
1 2 4.83253 0.579068 2.21914
1 47 -3.22385 1.61367 1.85436
1 48 -2.56613 0.998009 2.28675
1 21 1.27339 2.21859 1.7813
1 34 -2.77642 3.9829 2.10598
1 20 1.88594 2.99266 1.87506
1 31 -1.70087 4.33752 2.20611
1 1 4.34051 0.712586 3.07946
1 33 -3.03033 3.82793 3.05772
1 32 -2.162 4.29148 3.10028
ITEM: TIMESTEP
50000
ITEM: NUMBER OF ATOMS
80
ITEM: BOX BOUNDS ff ff ff
-2.0000000000000000e+01 2.0000000000000000e+01
-2.0000000000000000e+01 2.0000000000000000e+01
-4.0000000000000000e+01 4.0000000000000000e+01
ITEM: ATOMS type id x y z
1 71 -0.852212 -1.69488 -3.44579
1 69 -1.5481 -2.47362 -3.15948
1 70 -1.39022 -2.2085 -4.10471
1 68 -1.71507 -1.50206 -3.03388
1 72 -0.530161 -0.753688 -3.53788
1 74 0.833452 -1.44414 -2.78842
1 73 0.413396 -0.631372 -3.22919
1 76 1.36962 -2.90815 -2.13121
1 75 1.19455 -2.37051 -2.92771
1 67 -1.72739 -1.07417 -2.14251
1 64 -3.80834 -0.714886 -1.9155
1 11 2.92387 1.21981 -1.75875
1 12 3.68918 1.06126 -1.14515
1 77 1.1613 -3.38023 -1.28692
1 63 -4.67306 -0.63804 -1.40086
1 66 -2.32493 -1.06939 -1.32671
1 54 -1.40497 -0.11835 -0.31729
1 62 -4.72262 -0.45496 -0.418322
1 65 -2.96084 -0.325468 -1.51808
1 53 -1.63606 0.19341 -1.22916
1 42 -1.98891 1.21235 -0.926501
1 40 -0.78732 1.71182 -0.743828
1 9 2.1607 0.256611 -0.684859
1 10 2.02796 0.922164 -1.43972
1 43 -2.94074 1.31619 -1.28672
1 41 -1.62498 2.11477 -1.09282
1 25 -0.431942 3.08714 -1.0695
1 15 2.58154 2.79687 -0.261314
1 13 3.13455 1.77884 -0.735084
1 26 -0.583151 3.97563 -0.630485
1 80 -0.855994 -4.74163 -0.143282
1 79 0.0489891 -4.40214 -0.416925
1 78 0.972969 -3.99515 -0.509339
1 56 -1.834 -1.5257 0.44193
1 55 -1.0799 -0.990164 0.047724
1 57 -2.53705 -0.838766 0.293223
1 61 -4.02243 -0.568345 0.292148
1 52 -1.57488 0.452263 -0.258147
1 45 -2.47964 1.53892 -0.14688
1 51 -1.70788 0.9033 0.642569
1 8 1.93495 0.990027 -0.0495261
1 44 -3.31914 1.88629 -0.575493
1 39 -0.803486 1.76611 0.248639
1 7 1.97419 1.70418 0.645507
1 14 3.54348 2.53905 -0.225846
1 24 0.0725034 3.12288 -0.200298
1 16 3.09788 2.03957 0.114526
1 17 3.50376 2.7478 0.695408
1 27 -1.16748 4.46284 0.0155235
1 28 -0.528576 4.915 0.622292
1 60 -3.57387 0.0727682 0.895918
1 59 -2.8101 0.359915 1.4846
1 58 -2.37633 0.0875241 0.627979
1 3 4.18237 -0.32078 2.03468
1 46 -2.75441 1.41127 0.799802
1 50 -1.14207 0.481559 1.3301
1 6 2.08041 1.15732 1.47302
1 38 -0.506762 1.47318 1.15343
1 19 2.30688 3.62534 1.30115
1 18 3.08759 3.63348 0.703496
1 23 -0.167523 2.8027 0.718087
1 22 0.169505 2.60902 1.62684
1 30 -1.26816 4.42054 1.8425
1 29 -0.82299 5.25866 1.5168
1 4 3.19952 -0.187829 1.98317
1 2 4.14443 0.470974 2.62842
1 49 -1.96514 0.85703 1.77257
1 5 2.85905 0.757707 1.98045
1 47 -2.93577 1.47308 1.79732
1 37 -1.22079 1.94541 1.65437
1 34 -2.50071 3.75675 1.88493
1 35 -1.87119 3.4308 1.17757
1 36 -1.12435 2.95857 1.66691
1 21 0.817536 3.09197 2.22586
1 20 1.66928 2.95527 1.68742
1 31 -2.06792 4.31553 2.46178
1 48 -2.38228 1.25897 2.59049
1 1 3.37005 1.00506 2.91686
1 32 -2.67147 3.82737 3.1059
1 33 -3.36169 3.68327 2.38252
ITEM: TIMESTEP
55000