ITEM: TIMESTEP
0
ITEM: NUMBER OF ATOMS
80
ITEM: BOX BOUNDS ff ff ff
-2.0000000000000000e+01 2.0000000000000000e+01
-2.0000000000000000e+01 2.0000000000000000e+01
-4.0000000000000000e+01 4.0000000000000000e+01
ITEM: ATOMS type id x y z
1 80 -0.47803 -4.085 -0.596936
1 68 -3.41634 -3.2224 -0.611913
1 69 -3.16955 -3.35875 -0.648425
1 73 -2.1778 -3.77099 -0.568829
1 61 -5.02787 -1.82941 -0.957158
1 62 -4.81868 -2.07798 -0.716046
1 8 6.20031 2.67447 -0.837081
1 10 6.01891 3.47489 -0.955271
1 45 -5.88504 3.87129 -0.762589
1 42 -5.31235 5.01265 -0.640086
1 14 5.31272 5.01207 -0.589197
1 28 0.000365982 7.9 -0.815824
1 26 0.915977 7.83377 -0.881388
1 21 3.06772 7.1111 -0.656768
1 74 -1.93131 -3.84435 -0.248517
1 75 -1.68601 -3.90724 0.055985
1 76 -1.44201 -3.96031 -0.301562
1 77 -1.19933 -4.00414 0.528027
1 78 -0.957883 -4.03925 0.220752
1 79 -0.717522 -4.06609 0.47652
1 65 -4.14107 -2.72297 -0.228425
1 67 -3.66117 -3.07138 -0.34613
1 70 -2.92166 -3.48107 -0.317396
1 71 -2.67337 -3.59006 0.364029
1 72 -2.42527 -3.68646 -0.0118263
1 64 -4.37386 -2.52462 -0.393429
1 59 -5.41222 -1.28215 -0.253526
1 60 -5.22624 -1.56406 -0.428295
1 55 -6.00018 0.000555938 0.19117
1 56 -5.87977 -0.341901 -0.088372
1 2 6.10013 0.355282 -0.0717076
1 51 -6.26466 1.48532 -0.359713
1 52 -6.23383 1.09976 -0.0922737
1 53 -6.17862 0.722736 -0.111947
1 3 6.17851 0.722143 -0.0629778
1 4 6.23376 1.09915 0.0307284
1 5 6.26463 1.4847 0.259797
1 48 -6.20022 2.6751 -0.353784
1 49 -6.24875 2.27494 0.205573
1 50 -6.26996 1.87768 -0.395057
1 6 6.26997 1.87705 -0.0348432
1 7 6.24881 2.27431 -0.0153736
1 46 -6.01872 3.47553 0.384527
1 47 -6.12369 3.07604 0.272497
1 9 6.12383 3.0754 0.494996
1 43 -5.53158 4.64223 0.470128
1 11 5.88528 3.87066 0.0514697
1 12 5.72289 4.26036 -0.100827
1 13 5.53191 4.64163 -0.0799878
1 41 -5.06554 5.36989 -0.0145083
1 40 -4.79196 5.71162 0.482214
1 15 5.06595 5.36933 -0.377146
1 37 -3.82234 6.62144 0.449381
1 38 -4.16899 6.33952 -0.384462
1 39 -4.49269 6.03555 0.203044
1 36 -3.45442 6.87935 -0.128019
1 20 3.45502 6.87896 -0.453413
1 19 3.82291 6.62101 -0.0358324
1 35 -3.06709 7.11145 -0.15525
1 33 -2.24245 7.4918 0.495494
1 34 -2.66237 7.31608 0.0564417
1 30 -0.915254 7.83388 -0.0755936
1 27 0.459509 7.8834 -0.218347
1 29 -0.458779 7.88345 0.217407
1 25 1.36713 7.75148 0.4468
1 24 1.81035 7.63713 0.494368
1 66 -3.90311 -2.90508 0.804348
1 63 -4.60019 -2.30969 0.664595
1 57 -5.74059 -0.67042 0.862604
1 58 -5.5842 -0.984083 0.546904
1 54 -6.10028 0.355857 0.65023
1 1 6 0 0.990403
1 44 -5.72261 4.26098 0.962331
1 16 4.79242 5.71109 0.614466
1 17 4.49319 6.03505 0.658247
1 18 4.16953 6.33906 0.945315
1 32 -1.80965 7.63734 0.832931
1 31 -1.36641 7.75164 0.673984
1 22 2.66302 7.31578 0.609796
1 23 2.24313 7.49155 0.978883
ITEM: TIMESTEP
5000
ITEM: NUMBER OF ATOMS
80
ITEM: BOX BOUNDS ff ff ff
-2.0000000000000000e+01 2.0000000000000000e+01
-2.0000000000000000e+01 2.0000000000000000e+01
-4.0000000000000000e+01 4.0000000000000000e+01
ITEM: ATOMS type id x y z
1 70 -2.5902 -4.80814 -0.378538
1 69 -2.69278 -3.83456 -0.623477
1 79 0.422102 -3.57908 -0.526497
1 80 0.644024 -4.23047 -1.24622
1 61 -6.07621 -1.70569 -1.07124
1 60 -5.23833 -2.25241 -1.00592
1 64 -4.09912 -2.37799 -1.31026
1 54 -5.00617 -0.511646 -1.27947
1 63 -4.81244 -1.68241 -1.31999
1 55 -5.91523 -0.564404 -1.63277
1 53 -5.2773 0.148702 -0.567235
1 7 6.02825 2.51649 -0.929755
1 21 2.67564 5.27712 -0.273587
1 14 4.65756 5.03065 -0.294484
1 28 0.156331 6.99078 -0.0135296
1 71 -1.71326 -5.27222 -0.436106
1 72 -1.01234 -4.68745 -0.05385
1 74 -0.725022 -3.71481 0.331425
1 78 0.172118 -4.41776 -0.0573977
1 66 -3.39885 -2.36639 -0.581249
1 68 -3.06386 -2.92709 -0.477165
1 67 -3.47355 -2.6534 0.384429
1 77 -0.347623 -3.56857 -0.0330947
1 59 -5.61696 -1.71741 -0.267226
1 65 -4.35888 -2.35727 -0.338573
1 62 -5.31652 -1.55539 -0.445455
1 56 -5.68007 -0.446974 -0.663308
1 2 4.48033 -0.0332358 -0.113042
1 3 5.13961 0.442608 0.484007
1 52 -5.22879 0.836778 0.17371
1 51 -6.0014 1.24492 0.664723
1 1 5.029 0.599618 -0.666102
1 4 4.69043 1.33024 0.580168
1 49 -6.33932 2.28205 0.677013
1 5 5.5828 1.76252 0.508974
1 6 5.8376 1.65301 -0.452853
1 8 6.50502 2.3458 -0.0604133
1 9 7.16548 2.287 0.699458
1 46 -7.15197 3.82833 0.601695
1 11 5.83064 3.58335 0.629237
1 10 6.26105 2.68807 0.699023
1 45 -6.90059 4.59546 -0.0088667
1 13 5.48349 5.03271 0.284035
1 12 6.26711 4.39654 0.265632
1 44 -6.19565 5.30757 0.060817
1 43 -5.40866 4.7982 -0.283466
1 41 -5.14374 5.14854 0.368623
1 42 -5.10864 5.7525 -0.433252
1 20 3.04041 5.49127 0.618631
1 16 4.31822 5.42768 0.445596
1 39 -4.2823 6.58656 0.309411
1 36 -2.84001 7.27607 0.0899242
1 33 -1.81493 6.2128 0.769623
1 32 -1.07222 6.37501 0.128304
1 24 1.68489 6.42871 0.322193
1 25 1.89764 6.41522 -0.637271
1 22 2.44464 6.1129 0.176197
1 18 3.69773 6.88903 0.63162
1 15 4.52162 6.00955 -0.336378
1 17 3.91239 6.19425 -0.0539897
1 38 -3.81314 6.95956 -0.511338
1 37 -3.40622 7.87036 -0.47544
1 30 -1.49751 7.08784 -0.780519
1 31 -1.59289 7.22781 0.193436
1 29 -0.776744 7.36436 -0.162155
1 26 1.35605 7.05322 -0.068235
1 27 0.738475 7.79343 0.172906
1 76 -0.518562 -3.90186 0.910481
1 75 -0.472682 -2.89383 0.845885
1 73 -1.26059 -4.37567 0.867753
1 58 -5.69255 -1.50103 0.705285
1 57 -5.58418 -0.587831 0.314224
1 50 -6.77466 1.56843 1.23085
1 48 -5.49762 2.79965 0.490009
1 47 -6.37705 3.25943 0.367116
1 34 -2.5336 5.83083 1.38099
1 40 -4.28602 5.62756 0.545173
1 35 -2.61642 6.64393 0.837986
1 23 2.18091 6.1169 1.14601
1 19 3.44888 6.14112 1.22748
ITEM: TIMESTEP
10000
ITEM: NUMBER OF ATOMS
80
ITEM: BOX BOUNDS ff ff ff
-2.0000000000000000e+01 2.0000000000000000e+01
-2.0000000000000000e+01 2.0000000000000000e+01
-4.0000000000000000e+01 4.0000000000000000e+01
ITEM: ATOMS type id x y z
1 80 0.152913 -2.84906 -2.2511
1 78 0.371191 -2.52643 -1.26307
1 79 0.90212 -2.21325 -2.05468
1 15 3.57757 4.76536 -1.64824
1 69 -2.03789 -3.24924 -0.394298
1 77 -0.481947 -2.96598 -0.979997
1 64 -4.24835 -2.34253 -1.59222
1 62 -4.8049 -1.70559 -0.911878
1 66 -3.74764 -1.73544 -1.02994
1 61 -5.55943 -1.78945 -0.266588
1 55 -5.30724 -0.60681 -1.06261
1 54 -4.41898 -0.330564 -0.70747
1 2 4.75131 -0.010741 -1.07558
1 52 -3.79091 0.944522 -0.667936
1 14 3.66629 4.67423 -0.647086
1 41 -3.46662 5.29113 -0.540499
1 16 4.14285 5.20939 -0.937007
1 38 -3.16972 6.48789 -0.540414
1 70 -2.54648 -3.28521 0.464173
1 71 -2.82327 -4.24064 0.575263
1 72 -1.90804 -4.19835 0.171881
1 65 -3.69614 -2.72358 -0.859647
1 74 -1.30744 -2.59209 0.0315375
1 73 -1.1989 -3.51859 0.386248
1 76 0.245813 -2.96476 -0.292051
1 60 -5.45693 -2.62638 0.268423
1 67 -2.75621 -1.73008 -1.08537
1 68 -2.1908 -2.26124 -0.457478
1 57 -4.82467 -0.878059 0.813199
1 63 -3.82869 -1.88601 -0.804592
1 56 -5.00785 -0.527757 -0.0963041
1 53 -4.23937 0.358431 -0.0111703
1 3 5.09914 -0.295868 -0.194886
1 1 5.7163 0.238435 -1.21717
1 50 -4.97846 0.900403 0.115778
1 51 -4.14044 1.4428 0.128713
1 5 4.36747 0.978 0.0816823
1 6 4.99926 1.14887 -0.663335
1 49 -5.50686 1.67195 0.447025
1 46 -5.82125 2.93966 0.228736
1 7 4.68057 1.99055 -0.23703
1 45 -5.14752 3.65604 0.11842
1 8 4.59194 2.8504 0.258974
1 9 5.22386 2.18926 -0.166234
1 44 -4.22644 3.97189 0.331414
1 12 4.51311 3.81227 0.0302808
1 13 4.40688 4.06975 -0.937683
1 42 -4.37644 5.1968 -0.152406
1 40 -4.27658 5.83968 -0.665846
1 17 3.92342 4.95073 -0.0116434
1 39 -4.00391 6.51933 0.0159447
1 37 -3.82489 6.60226 0.210135
1 36 -3.34328 6.3261 1.0436
1 31 -1.36383 6.40357 0.449692
1 24 1.13637 5.94605 0.0655249
1 30 -0.551993 6.97777 0.301622
1 29 -0.197021 7.14252 -0.617351
1 28 0.358269 7.06466 0.218858
1 75 -0.420599 -2.80806 0.441942
1 59 -5.72455 -1.77492 0.716496
1 58 -4.89827 -1.73693 1.28566
1 48 -6.06935 1.58531 1.26425
1 4 5.20372 0.512226 0.393524
1 47 -6.37235 2.15095 0.501536
1 10 4.98123 2.37377 0.780005
1 11 5.09193 3.36184 0.713451
1 34 -2.48163 5.01849 1.15407
1 18 3.83483 4.32909 0.755559
1 43 -4.76932 4.74112 0.627545
1 35 -2.54096 5.88618 0.659234
1 33 -1.58006 5.2737 1.52437
1 21 2.15756 5.58157 0.823339
1 22 1.87191 5.45437 1.76445
1 20 2.87256 5.60012 1.51622
1 32 -1.97326 6.14087 1.18824
1 25 1.46779 6.41121 0.866112
1 26 1.16896 6.81309 1.70544
1 23 1.55254 5.43952 0.821572
1 27 1.19131 6.79493 0.694896
1 19 3.74385 5.10709 1.35609
ITEM: TIMESTEP
15000
ITEM: NUMBER OF ATOMS
80
ITEM: BOX BOUNDS ff ff ff
-2.0000000000000000e+01 2.0000000000000000e+01
-2.0000000000000000e+01 2.0000000000000000e+01
-4.0000000000000000e+01 4.0000000000000000e+01
ITEM: ATOMS type id x y z
1 66 -3.0113 -2.44625 -1.18479
1 68 -2.37425 -2.38848 -1.04865
1 40 -3.42538 4.86223 -1.57265
1 71 -1.65811 -4.03776 -0.404457
1 76 0.331258 -3.46319 -0.85546
1 77 -0.240992 -2.70944 -0.558627
1 69 -2.05793 -3.173 -1.59853
1 79 0.680716 -2.6568 -0.676218
1 64 -2.8827 -1.52547 -1.45817
1 67 -2.72197 -1.51687 -1.39465
1 65 -2.12692 -2.02481 -1.05463
1 80 0.220476 -1.87536 -1.08015
1 1 4.68498 -1.80882 -0.995121
1 50 -5.27084 1.33243 -0.868607
1 53 -4.22058 1.40198 -0.920312
1 51 -5.36886 1.64529 -1.81993
1 52 -4.86267 2.13649 -1.10584
1 42 -3.8949 2.97959 -1.24842
1 13 4.27754 3.46088 -0.706698
1 41 -3.70646 3.9612 -1.26322
1 39 -2.82059 5.07843 -0.792389
1 15 3.46246 4.00125 -0.666554
1 14 4.28037 4.40304 -1.07224
1 72 -1.30761 -3.14499 -0.153396
1 70 -1.76051 -3.08902 -0.660299
1 78 0.341976 -3.06275 0.17384
1 75 -0.237911 -3.29861 -0.0438265
1 61 -4.55499 -1.38652 0.338713
1 63 -3.62146 -1.80881 -0.846338
1 58 -4.91676 -1.16296 -0.746549
1 62 -3.64264 -1.21599 -0.0386894
1 60 -4.10384 -0.921404 -0.422243
1 59 -4.90062 -0.55739 0.0491211
1 2 3.85952 -1.37363 -0.648369
1 55 -4.36303 0.79026 0.157541
1 57 -4.84596 -0.40294 -0.104884
1 3 4.04423 -0.819744 0.143218
1 54 -3.79645 0.547379 -0.627324
1 48 -4.94284 1.76789 0.379944
1 4 4.248 0.0991217 -0.173655
1 6 4.67201 1.45869 -0.150352
1 49 -5.45765 2.18371 -0.371277
1 47 -4.35711 2.53644 0.145039
1 7 4.24802 1.98245 0.578562
1 46 -4.2919 3.42438 -0.325472
1 45 -3.53398 3.82097 0.180892
1 16 2.9965 3.41789 0.0127708
1 43 -4.3274 3.46635 -0.485204
1 44 -4.48145 3.65053 0.492255
1 18 2.95877 4.25482 0.254549
1 12 3.97828 3.89346 0.1264
1 38 -2.958 5.39428 0.157953
1 20 1.98155 4.38615 0.239734
1 25 1.59219 6.00005 0.304361
1 73 -1.48799 -3.02471 0.81052
1 74 -0.529294 -2.7725 0.759003
1 56 -4.26408 -0.0717305 0.642043
1 5 4.08314 0.867564 0.420218
1 8 5.09005 2.3999 0.930194
1 17 2.39251 3.62242 0.788574
1 11 4.45403 3.21991 0.687988
1 10 4.88915 2.35125 0.895196
1 36 -2.95938 5.45578 0.564138
1 37 -2.04415 5.11379 0.404394
1 35 -2.91995 4.95875 1.43967
1 32 -1.54472 5.27744 1.38414
1 24 0.621186 5.86238 0.493236
1 23 0.378552 5.03038 0.988282
1 21 1.7908 4.54231 1.20907
1 19 2.4254 4.17422 1.11911
1 30 -0.969292 6.95432 1.2117
1 31 -1.49821 6.16247 0.943529
1 26 0.990232 6.46474 0.936264
1 29 -0.483151 7.30859 0.40282
1 28 -0.0449275 7.39143 1.30036
1 9 4.80819 2.45025 1.88705
1 22 1.02032 4.89341 1.73928
1 34 -2.20966 4.63557 2.08292
1 33 -1.22102 4.64417 2.07497
1 27 0.229277 6.4501 1.56495
ITEM: TIMESTEP
20000
ITEM: NUMBER OF ATOMS
80
ITEM: BOX BOUNDS ff ff ff
-2.0000000000000000e+01 2.0000000000000000e+01
-2.0000000000000000e+01 2.0000000000000000e+01
-4.0000000000000000e+01 4.0000000000000000e+01
ITEM: ATOMS type id x y z
1 65 -2.82525 -2.98356 -1.03016
1 77 -0.567074 -2.18753 -1.34025
1 80 0.168561 -1.32835 -1.70809
1 53 -3.9941 1.26904 -0.593883
1 40 -3.06236 4.8345 -1.83171
1 39 -2.33882 4.14866 -1.92226
1 71 -0.909666 -3.93847 -1.20037
1 66 -2.54731 -2.024 -1.02836
1 64 -3.41428 -2.18051 -1.10592
1 70 -1.14139 -2.99564 -1.48727
1 67 -2.21495 -1.12229 -1.25142
1 76 -0.630758 -2.17969 -0.349585
1 69 -1.86435 -2.31773 -1.28417
1 68 -1.84848 -1.69066 -0.503505
1 78 0.33142 -2.42524 -1.69799
1 1 4.03072 -1.59317 -0.718531
1 60 -3.7985 -1.65373 -0.240858
1 79 -0.271134 -1.95018 -1.0494
1 54 -3.21717 1.8718 -0.643003
1 52 -4.70872 1.6252 -1.18171
1 15 3.19092 2.46312 -0.196501
1 42 -4.60398 4.02307 -1.38317
1 41 -4.04061 4.82725 -1.58781
1 38 -1.94533 4.54639 -1.091
1 72 -1.34125 -3.51817 -0.399051
1 73 -1.15149 -3.75177 0.535295
1 61 -3.33024 -2.14299 0.521088
1 63 -3.04319 -2.64359 -0.299669
1 75 -1.12724 -2.65751 0.366324
1 59 -4.32967 -0.899357 0.147254
1 3 3.73496 -1.16816 -0.387133
1 2 4.71857 -1.00989 -0.26347
1 58 -4.22651 0.0441107 -0.202955
1 4 4.15884 -0.280898 -0.228545
1 5 4.6157 0.348765 0.387794
1 55 -3.72034 1.42551 0.102296
1 51 -5.42265 1.93816 -0.528565
1 50 -5.63566 2.09557 0.432821
1 49 -5.13482 2.08052 -0.42657
1 16 2.76402 2.95345 0.572538
1 43 -4.40548 3.58554 -0.507325
1 45 -4.51604 3.19521 -0.330707
1 44 -3.52979 3.15334 -0.272253
1 46 -3.63925 2.7231 -0.36335
1 17 2.50818 3.57407 -0.173925
1 14 3.93133 3.1194 -0.180189
1 13 4.80967 3.14932 0.301438
1 18 2.97512 4.11903 0.52048
1 12 4.72345 4.13536 0.434219
1 37 -1.87584 4.84396 -0.14389
1 36 -2.71271 5.08274 0.318832
1 24 0.143366 5.20901 0.419929
1 29 -0.54248 7.04631 0.644629
1 74 -0.323663 -3.23928 0.470183
1 62 -2.37901 -2.09477 0.237585
1 57 -3.55951 0.522582 0.35367
1 56 -4.51089 0.843484 0.28241
1 6 4.28069 0.842046 1.18008
1 48 -4.70039 1.95539 0.469461
1 47 -4.29305 2.86522 0.376446
1 10 4.51439 2.33135 0.888003
1 7 4.57181 0.929878 2.11963
1 9 5.21652 1.82541 1.3826
1 34 -2.20009 3.66944 0.971282
1 20 1.45118 3.21054 0.913971
1 19 2.03852 3.99492 0.836764
1 11 4.49957 3.15173 0.314363
1 35 -2.7188 4.50265 1.1173
1 33 -2.56055 4.60037 1.03034
1 23 0.673644 4.41127 0.117815
1 21 1.30853 4.10463 1.35529
1 32 -1.77626 4.91387 1.57318
1 31 -1.21734 5.43781 0.94155
1 25 -0.137063 5.18894 1.37973
1 22 1.33913 4.85599 0.705859
1 28 0.410483 6.77854 0.621744
1 30 -0.848615 6.32131 1.23213
1 26 0.165051 5.7334 2.1551
1 27 0.575798 6.4157 1.54335
1 8 5.5154 1.26001 2.1301
ITEM: TIMESTEP
25000
ITEM: NUMBER OF ATOMS
80
ITEM: BOX BOUNDS ff ff ff
-2.0000000000000000e+01 2.0000000000000000e+01
-2.0000000000000000e+01 2.0000000000000000e+01
-4.0000000000000000e+01 4.0000000000000000e+01
ITEM: ATOMS type id x y z
1 80 -0.904772 -1.36512 -3.08598
1 69 -2.08963 -3.25126 -1.06486
1 68 -2.17607 -2.34002 -1.46792
1 79 -0.235714 -1.29285 -2.3415
1 40 -2.97298 4.59473 -1.58552
1 41 -3.82882 4.9909 -1.90307
1 70 -2.63668 -4.0334 -1.41507
1 71 -1.86969 -3.72647 -0.852496
1 64 -3.50919 -1.68571 -0.67768
1 77 -0.543635 -1.47195 -1.24718
1 65 -2.53622 -1.69581 -0.427714
1 66 -2.13358 -1.13154 -1.15196
1 67 -2.35101 -1.54752 -2.04561
1 78 0.343945 -1.73807 -1.65759
1 4 3.87676 -0.814409 -0.920858
1 5 4.64095 -0.489515 -0.362885
1 53 -4.02874 1.06869 -0.0602369
1 13 3.55887 3.12818 -0.51225
1 45 -3.42647 3.0632 -0.835813
1 14 3.66195 2.79094 0.42908
1 42 -3.40622 4.93139 -1.01076
1 39 -2.01414 4.46471 -1.80086
1 72 -1.65849 -4.09495 0.0475298
1 74 -0.686709 -3.59738 -0.371734
1 75 -0.700202 -2.78871 0.224111
1 62 -2.34384 -1.84858 -0.0183872
1 76 -0.612291 -2.2423 -0.624319
1 1 3.47874 -2.6094 0.0182378
1 59 -3.82801 -1.38181 0.573078
1 63 -2.62571 -1.22837 -0.745353
1 2 3.4505 -1.68419 -0.366816
1 3 3.36729 -0.735517 -0.0722989
1 57 -3.25391 -0.394479 0.0952921
1 56 -2.75221 0.147589 -0.581584
1 51 -5.39288 1.83787 0.13581
1 52 -4.47095 1.74642 0.521446
1 54 -3.31958 0.984539 -0.744835
1 55 -2.36161 1.05985 -0.485611
1 6 5.09219 0.0834224 0.319328
1 50 -5.05944 2.24723 0.997216
1 49 -4.99198 2.86583 0.205268
1 15 2.88383 2.16767 0.360869
1 12 4.54074 3.02881 -0.31691
1 46 -2.74515 2.57419 -0.29727
1 16 2.65728 3.13695 0.357633
1 44 -4.00164 3.48881 -0.140077
1 36 -1.94867 4.02623 -0.260811
1 34 -1.6244 4.2947 0.00981783
1 23 0.891381 4.34624 -0.0117104
1 22 1.77265 4.19519 0.431915
1 43 -4.03128 4.45898 -0.382297
1 37 -2.3201 4.9541 -0.121134
1 38 -1.72548 4.82205 -0.912337
1 35 -2.52947 4.61333 0.306759
1 73 -0.718886 -4.31219 0.332879
1 61 -2.75153 -2.37085 0.737121
1 60 -3.32572 -1.81573 1.32708
1 58 -3.84045 -0.450584 0.912262
1 7 4.81901 0.818611 0.951552
1 48 -4.08879 2.71849 0.585815
1 47 -3.13142 2.42756 0.612803
1 10 4.87723 2.54119 1.53873
1 20 1.20666 2.56608 0.750307
1 17 1.9902 2.99357 1.0838
1 11 4.51139 2.86245 0.671584
1 33 -1.19057 3.6692 0.670808
1 32 -1.92456 4.30676 0.852847
1 21 1.07212 3.54484 0.709963
1 24 0.962649 4.98446 0.759889
1 31 -1.42472 5.10213 1.19009
1 25 0.712335 4.63283 1.6677
1 30 -0.987503 5.99313 1.09173
1 29 -0.898059 6.98318 1.22059
1 27 0.788987 6.08795 1.37528
1 28 0.0664445 6.75417 1.14123
1 8 4.58824 1.72275 1.32711
1 9 3.96709 2.2552 1.89177
1 19 1.24842 3.22829 1.49162
1 18 1.99871 2.89229 2.06042
1 26 0.599591 5.5063 2.16328
ITEM: TIMESTEP
30000
ITEM: NUMBER OF ATOMS
80
ITEM: BOX BOUNDS ff ff ff
-2.0000000000000000e+01 2.0000000000000000e+01
-2.0000000000000000e+01 2.0000000000000000e+01
-4.0000000000000000e+01 4.0000000000000000e+01
ITEM: ATOMS type id x y z
1 79 0.634056 -1.14425 -2.2521
1 80 0.0638049 -0.74848 -2.98629
1 70 -2.6171 -4.89103 -1.72181
1 71 -1.77254 -4.36447 -1.64906
1 67 -2.47128 -3.083 -2.44861
1 77 0.04179 -2.45022 -1.70094
1 66 -2.53837 -2.20873 -1.95796
1 78 0.11503 -1.94209 -2.55963
1 69 -2.53168 -3.92298 -1.47282
1 72 -1.37733 -4.05242 -0.780435
1 68 -3.25367 -3.40469 -1.9112
1 74 -0.985166 -3.81826 -1.4682
1 65 -1.85001 -1.7756 -1.38347
1 76 -0.845345 -2.46493 -1.22509
1 2 4.17603 -1.4934 -0.940375
1 3 4.89277 -0.997923 -1.43745
1 4 4.84387 -0.136821 -0.907366
1 14 3.35624 2.49273 -0.492067
1 46 -4.24985 2.76429 -1.19013
1 43 -3.99456 4.96582 -1.00393
1 40 -2.76296 4.70967 -1.80083
1 39 -2.32148 5.20837 -1.03059
1 41 -3.48318 4.96761 -1.15114
1 42 -3.46271 5.16064 -0.164928
1 75 -0.837923 -3.29091 -0.642432
1 73 -0.421209 -3.81082 -0.642663
1 64 -2.385 -1.4583 -0.601718
1 1 3.47829 -1.45317 -0.220854
1 63 -1.94541 -1.77737 0.254322
1 5 5.14179 0.147869 0.00474354
1 56 -3.83242 -0.56233 0.0361157
1 57 -3.69275 0.0728062 0.789128
1 55 -4.08193 0.327748 -0.362771
1 54 -4.75785 1.03011 -0.142878
1 53 -3.77737 1.22554 -0.10951
1 35 -2.36614 3.01296 0.652487
1 15 2.78129 2.16593 0.230509
1 47 -4.07283 2.9998 -0.237212
1 45 -3.63216 3.37162 -0.697892
1 36 -1.76676 3.54487 0.0564608
1 33 -1.5129 3.55491 0.370372
1 23 0.854444 3.47049 1.20904
1 13 3.22009 3.42651 -0.178494
1 44 -4.03566 4.21521 -0.344986
1 37 -2.33527 4.27504 -0.337052
1 22 0.381944 3.56973 0.338713
1 38 -1.99728 5.17424 -0.0889036
1 61 -3.07749 -0.735435 1.02434
1 59 -3.43487 -0.913938 0.686103
1 62 -2.13894 -1.11686 0.973222
1 60 -3.74625 0.00477945 0.880885
1 58 -2.87464 -0.295411 1.24021
1 6 4.9627 -0.340196 0.853935
1 52 -3.43797 1.81404 0.619263
1 8 4.23272 1.13769 1.08382
1 7 5.00251 0.636157 0.682618
1 49 -4.25355 2.04329 0.681197
1 34 -1.46996 2.60251 0.627677
1 16 2.40372 2.78455 0.902041
1 9 4.29377 1.94204 0.505643
1 48 -4.58033 2.99526 0.603457
1 21 0.927221 3.33126 1.13307
1 19 1.78137 3.10819 2.42664
1 12 3.72918 3.11202 0.634515
1 10 4.62971 2.8523 0.716186
1 11 4.233 3.48326 1.40126
1 32 -0.705263 3.94691 0.816701
1 31 -1.01486 4.90652 0.774481
1 24 0.161288 4.14337 1.45684
1 20 1.83624 3.5033 1.50378
1 25 0.162883 4.95478 0.870764
1 27 0.97107 4.88189 1.42977
1 29 -0.113034 6.17102 1.91353
1 28 0.411131 5.67553 1.22147
1 51 -2.96779 1.46761 1.42509
1 50 -3.92297 1.68603 1.55809
1 17 2.8851 3.09382 1.71623
1 18 2.26846 2.33455 1.99869
1 26 0.0725327 4.58664 1.78625
1 30 -0.834073 5.66981 1.42446
ITEM: TIMESTEP
35000
ITEM: NUMBER OF ATOMS
80
ITEM: BOX BOUNDS ff ff ff
-2.0000000000000000e+01 2.0000000000000000e+01
-2.0000000000000000e+01 2.0000000000000000e+01
-4.0000000000000000e+01 4.0000000000000000e+01
ITEM: ATOMS type id x y z
1 79 0.147966 -1.63187 -2.31141
1 80 -0.627553 -1.23723 -2.79894
1 68 -2.81328 -2.94074 -1.79938
1 72 -1.68981 -3.37693 -1.85094
1 67 -2.66564 -1.94223 -1.76428
1 77 0.478224 -1.98272 -1.6157
1 78 0.349582 -0.976327 -1.57567
1 69 -2.79752 -3.90191 -1.58396
1 73 -1.08795 -3.83976 -1.18639
1 74 -0.218084 -4.01183 -0.707873
1 70 -2.05317 -3.87005 -0.918911
1 71 -1.33382 -3.16958 -0.959025
1 76 0.437228 -2.52504 -0.778626
1 66 -1.98759 -1.8557 -1.03635
1 65 -1.70351 -1.03077 -0.536306
1 55 -4.1743 -0.301875 -0.972735
1 54 -4.38495 0.076205 -0.0512574
1 1 4.34096 -0.375334 -0.653213
1 2 4.13882 0.606002 -0.618179
1 46 -3.98903 3.06179 -1.18063
1 45 -4.06977 3.17182 -2.17589
1 47 -4.49715 3.21043 -0.330134
1 37 -1.96177 3.58442 -0.842954
1 44 -4.67954 3.57534 -1.48127
1 41 -3.41242 3.96711 -1.03669
1 43 -3.81802 3.71986 -0.990592
1 40 -2.75499 4.62639 -0.679205
1 39 -2.46594 3.65856 -0.805615
1 75 0.619185 -3.48392 -0.566361
1 62 -2.86377 -1.73095 0.147285
1 64 -2.05611 -1.76794 0.0434238
1 61 -3.20485 -1.56594 1.07747
1 4 3.71649 -0.681282 0.0529322
1 56 -3.58106 -0.136394 -0.177621
1 5 4.0573 0.153737 0.478845
1 3 4.37503 -0.360457 -0.619434
1 53 -4.21683 1.06315 -0.0884367
1 35 -1.15481 2.84388 0.344683
1 15 2.48785 2.46597 -0.126042
1 16 2.43871 1.58838 0.332777
1 48 -4.17153 2.58135 0.378228
1 38 -2.34246 2.73126 -0.448274
1 36 -1.47935 2.74917 -0.600657
1 34 -0.297422 3.08111 0.790253
1 14 2.26306 3.23986 0.453883
1 13 3.21593 2.99622 0.606126
1 42 -3.47099 3.85515 -0.0639909
1 32 -0.993282 4.34172 0.675718
1 30 -0.321618 4.73419 0.516272
1 31 -0.826836 4.47214 -0.303817
1 63 -2.38456 -2.1404 0.91464
1 57 -3.20799 -0.138245 0.757293
1 60 -3.7248 -0.734536 0.900459
1 58 -2.22972 -0.0297768 0.882978
1 6 4.66568 0.932524 0.35959
1 52 -3.89805 1.14069 0.852841
1 7 3.75601 0.959672 0.763317
1 8 4.30777 1.19233 1.56121
1 50 -3.46935 2.23063 1.61959
1 51 -3.14177 1.80186 0.786607
1 17 1.98705 2.18772 1.00109
1 9 3.97319 1.69011 0.757263
1 49 -3.26345 2.72413 0.767015
1 33 -0.832978 3.55383 0.090707
1 25 0.443556 4.01743 0.795285
1 12 4.10245 3.33455 0.920975
1 11 3.45737 2.91425 1.55843
1 10 4.27011 2.55777 1.12214
1 27 0.237251 4.38582 0.663334
1 24 1.1735 3.63089 0.255695
1 22 1.2111 4.04523 1.15123
1 23 1.72117 4.47077 0.38503
1 29 -0.203902 4.8801 1.49506
1 59 -2.8704 -0.598657 1.40004
1 18 1.52011 2.22981 1.88696
1 19 2.38501 2.43332 1.44663
1 21 1.62834 3.36226 1.77243
1 20 2.01217 2.65053 2.35029
1 26 -0.335893 4.04596 1.41769
1 28 0.520295 5.29102 0.973361
ITEM: TIMESTEP
40000
ITEM: NUMBER OF ATOMS
80
ITEM: BOX BOUNDS ff ff ff
-2.0000000000000000e+01 2.0000000000000000e+01
-2.0000000000000000e+01 2.0000000000000000e+01
-4.0000000000000000e+01 4.0000000000000000e+01
ITEM: ATOMS type id x y z
1 80 1.63692 -1.87495 -2.92108
1 68 -3.05542 -2.469 -1.80743
1 72 -0.990574 -2.08035 -1.38952
1 79 1.62082 -2.09192 -1.96113
1 67 -2.80942 -1.54471 -2.10833
1 40 -2.25743 3.00745 -1.75903
1 45 -4.30678 3.79738 -1.97391
1 69 -2.4131 -3.11235 -1.40237
1 70 -1.68267 -2.90312 -0.750487
1 66 -2.8139 -1.99694 -1.22145
1 64 -2.87965 -1.92773 -1.04558
1 73 -0.585911 -2.95434 -1.69666
1 71 -0.817271 -3.04386 -1.21997
1 74 -0.204837 -2.19086 -1.16957
1 77 0.94802 -1.39116 -1.35986
1 78 1.90756 -1.61105 -1.1639
1 65 -2.25287 -1.1552 -1.17754
1 56 -2.96622 -0.371782 -0.47147
1 2 4.1436 0.00599368 -0.908565
1 3 3.51003 -0.308902 -0.223505
1 47 -4.05417 2.37987 -0.845438
1 38 -2.17463 2.43928 -0.574078
1 39 -1.64119 2.30031 -1.41395
1 44 -3.64305 3.62375 -1.25423
1 46 -4.23366 2.82221 -1.73043
1 41 -2.76015 3.8177 -1.4818
1 36 -1.87276 3.23433 -0.327269
1 43 -3.35022 4.57223 -1.18971
1 63 -2.51956 -2.11884 -0.133582
1 75 -0.205952 -2.32059 -0.181995
1 76 0.628852 -1.95418 -0.576141
1 55 -3.96297 -0.520058 -0.486289
1 62 -2.08723 -1.46565 0.487479
1 57 -3.70439 -0.107689 0.144992
1 54 -3.84414 0.280161 0.118774
1 4 3.23036 -0.287113 0.727911
1 1 4.39403 0.949362 -0.665199
1 6 4.12167 1.30637 0.398206
1 48 -3.34942 2.52221 -0.160843
1 49 -2.86867 1.69978 0.188268
1 37 -2.12008 2.60818 0.41408
1 35 -0.997363 2.78234 -0.480085
1 33 -0.623028 2.79025 -0.252067
1 17 0.944955 1.05592 0.456382
1 16 1.34073 1.89426 0.839281
1 13 3.74477 2.39523 0.224131
1 42 -3.54822 3.6209 -0.900777
1 32 -0.621064 3.06546 0.714059
1 31 -0.576204 3.81993 0.0625397
1 60 -3.39373 -1.08784 1.07925
1 61 -2.62329 -0.63056 0.632331
1 58 -3.78389 -0.455416 1.06819
1 53 -3.24716 0.758347 0.751911
1 52 -2.33617 0.362727 0.900257
1 51 -1.81217 1.19041 0.705458
1 50 -2.55808 1.69339 1.13568
1 7 3.27579 0.993637 0.781415
1 9 2.42773 1.65392 2.01219
1 5 3.34444 0.686245 0.530688
1 8 3.26222 1.1734 1.75154
1 34 -1.31524 2.8392 0.477156
1 18 1.61184 1.70038 0.813161
1 15 2.2213 2.24837 0.487447
1 10 3.20971 2.06604 1.54301
1 24 0.734759 2.85086 0.936073
1 23 1.46708 3.51906 0.913251
1 14 2.94886 2.93991 0.497134
1 12 4.20897 2.53739 1.08378
1 30 -0.408142 4.68136 0.578628
1 29 -0.717442 4.00102 1.2463
1 28 -0.801513 4.96773 0.992109
1 27 -0.311479 4.22601 1.42441
1 22 1.70063 4.44158 1.27957
1 59 -3.1243 -0.447488 1.80054
1 19 1.4045 1.87692 1.7845
1 11 3.77939 2.77348 1.95834
1 25 0.459287 3.20345 1.83049
1 20 1.84173 2.74894 1.96329
1 26 -0.37693 3.58398 2.18675
1 21 2.15336 3.67813 1.7346
ITEM: TIMESTEP
45000
ITEM: NUMBER OF ATOMS
80
ITEM: BOX BOUNDS ff ff ff
-2.0000000000000000e+01 2.0000000000000000e+01
-2.0000000000000000e+01 2.0000000000000000e+01
-4.0000000000000000e+01 4.0000000000000000e+01
ITEM: ATOMS type id x y z
1 67 -2.55339 -2.14992 -3.24254
1 80 1.64807 -0.66502 -2.98219
1 68 -1.94965 -2.25427 -2.44614
1 66 -2.73891 -1.8661 -2.3059
1 72 -1.09209 -2.3822 -1.83672
1 65 -2.29544 -1.12444 -1.80248
1 79 1.05454 -0.394644 -2.23712
1 43 -3.86829 3.53843 -1.74894
1 44 -4.2053 3.13688 -2.5988
1 40 -1.75507 3.14998 -1.63825
1 69 -1.74536 -2.44311 -1.47329
1 71 -1.25473 -3.29014 -1.41505
1 70 -1.55446 -2.8363 -0.569454
1 75 0.648445 -3.38197 -1.21067
1 73 -0.559294 -1.87373 -1.16917
1 74 -0.138103 -2.78682 -1.2791
1 77 1.64469 -1.88978 -1.13616
1 64 -1.72299 -1.32793 -1.02365
1 78 1.28961 -1.00582 -1.48244
1 55 -3.16962 0.105919 -0.531253
1 1 3.07033 0.63353 -0.811495
1 46 -3.96895 2.37351 -1.03875
1 47 -3.2371 2.01043 -0.444053
1 38 -2.03748 1.84086 -1.24317
1 45 -3.60447 2.80865 -1.85421
1 39 -2.39403 2.7496 -1.00475
1 41 -2.70483 3.25992 -1.87789
1 37 -1.5569 2.71129 -1.34833
1 42 -3.11038 3.79137 -1.14604
1 76 0.790144 -2.40172 -1.29318
1 57 -3.47919 -0.69909 0.925585
1 56 -3.83698 -0.31217 0.0876644
1 63 -2.24903 -1.44555 -0.172607
1 62 -2.32523 -1.2056 0.808806
1 2 2.52489 -0.11831 -0.409005
1 54 -3.64151 0.907365 -0.164927
1 52 -2.68097 1.05891 -0.127322
1 48 -2.76537 2.37297 0.366802
1 50 -2.67448 2.38086 -0.0681611
1 51 -1.98688 1.70581 0.224507
1 34 -0.628463 2.11504 0.125499
1 35 -1.26622 2.37623 -0.594594
1 16 2.13468 2.28753 -0.106842
1 15 2.68048 2.90635 0.446185
1 36 -1.77458 3.23309 -0.528898
1 31 -0.264619 2.37087 -0.0168685
1 60 -2.77154 -1.27768 0.944406
1 61 -2.32516 -1.06551 1.81073
1 58 -3.32408 -0.161313 1.75916
1 59 -2.65038 -0.884807 1.85027
1 3 2.37843 -0.359375 0.563196
1 5 2.61348 0.0125686 0.666292
1 4 1.80029 -0.00764858 1.2754
1 6 3.43169 0.354166 1.13179
1 53 -3.23075 1.17732 0.713096
1 33 -0.263116 1.39318 0.732199
1 8 2.47311 0.901671 1.14842
1 7 3.28023 1.2258 0.654669
1 49 -1.82235 2.66651 0.379924
1 32 -0.462384 2.3351 0.961222
1 17 1.9038 1.57669 0.565038
1 18 1.39278 1.38996 1.39351
1 14 3.62818 2.98479 0.769321
1 30 -0.407768 2.92926 0.825532
1 23 1.31283 2.93421 1.20925
1 13 3.71137 2.62302 1.70324
1 29 -0.78909 3.79212 1.18709
1 28 0.0467786 4.20966 1.56679
1 9 2.70571 1.60217 1.81562
1 19 1.81941 2.16666 1.86175
1 20 1.67463 2.94657 1.24206
1 10 3.32667 2.18689 2.34133
1 12 3.19627 1.96776 2.24553
1 11 4.12431 1.7304 1.97275
1 25 -0.249467 3.76169 2.13687
1 24 0.502694 3.33499 1.65298
1 26 -0.162277 2.78106 2.34279
1 21 1.83668 3.36228 2.1385
1 27 -0.485223 3.36983 1.60435
1 22 1.27105 3.89356 1.50061
ITEM: TIMESTEP
50000
ITEM: NUMBER OF ATOMS
80
ITEM: BOX BOUNDS ff ff ff
-2.0000000000000000e+01 2.0000000000000000e+01
-2.0000000000000000e+01 2.0000000000000000e+01
-4.0000000000000000e+01 4.0000000000000000e+01
ITEM: ATOMS type id x y z
1 71 -0.791247 -2.61025 -1.48605
1 67 -2.34614 -2.10687 -1.41366
1 70 -1.30922 -2.49282 -2.32658
1 68 -1.6217 -2.16172 -2.09439
1 72 -0.906817 -1.62402 -1.60495
1 75 0.215306 -1.29154 -1.78022
1 77 2.1702 -1.45015 -1.78242
1 79 2.29472 -1.5889 -3.24591
1 80 3.14889 -1.13707 -3.53678
1 78 2.33548 -0.847106 -2.56987
1 45 -3.20715 1.3321 -1.40682
1 42 -3.9693 2.80171 -1.84108
1 38 -2.4887 2.33136 -1.27379
1 41 -3.06537 2.71329 -2.25193
1 40 -2.30693 3.30827 -1.96476
1 69 -1.14245 -2.57728 -1.3332
1 73 -0.143762 -1.37841 -0.998816
1 76 1.18521 -1.48935 -1.67294
1 66 -2.67958 -1.16439 -1.46398
1 64 -1.2971 -0.612505 -0.912884
1 74 0.55403 -2.04772 -1.22831
1 65 -2.25857 -0.376169 -1.02621
1 44 -4.17935 1.47186 -1.59333
1 46 -3.89015 1.36138 -0.678144
1 36 -1.45785 0.912629 -1.13206
1 43 -4.77735 2.28302 -1.56058
1 39 -1.67211 2.54202 -1.83113
1 37 -1.59225 1.90025 -1.14575
1 35 -1.06512 1.7938 -0.94459
1 34 -0.245929 2.33388 -1.1104
1 55 -3.9204 -0.157251 0.665628
1 63 -1.84028 -1.17158 -0.288001
1 62 -1.67286 -1.43811 0.650208
1 54 -3.1017 -0.388289 0.130286
1 53 -2.23974 0.138682 0.162096
1 3 2.31779 -0.151901 0.147005
1 52 -1.72308 0.951758 0.444154
1 2 2.44618 0.773808 -0.220378
1 1 3.31418 0.72461 -0.699024
1 47 -3.87339 2.28937 -0.322574
1 48 -3.11631 2.00422 0.264852
1 51 -2.23373 1.81806 0.410082
1 33 -0.816451 2.05415 -0.346777
1 32 0.0657902 1.76058 0.0437473
1 30 0.135503 2.62513 0.800416
1 31 0.803735 2.43687 0.0912102
1 28 -1.71604 3.09928 0.271912
1 13 3.9995 2.70017 0.569881
1 56 -4.70965 -0.682127 0.980627
1 57 -3.82481 -0.871096 1.37729
1 59 -1.8519 -0.830114 1.46403
1 4 3.26149 -0.153094 0.494577
1 61 -1.77438 -0.480386 0.87016
1 60 -1.75911 0.156532 1.65164
1 5 2.82137 -0.354836 1.38009
1 17 1.90613 1.63269 1.31416
1 7 2.57608 0.588617 0.931762
1 49 -3.28285 2.13675 1.25003
1 50 -2.49322 2.6356 0.922036
1 16 1.66587 2.4516 0.821727
1 14 3.29791 2.14502 1.0317
1 12 3.71678 1.81492 0.915742
1 29 -0.801446 2.79142 0.475245
1 27 -1.69151 3.40942 1.21681
1 15 2.51706 2.70141 1.28158
1 25 0.0760886 4.05803 1.77183
1 58 -2.8358 -0.84596 1.28038
1 6 2.68349 0.487754 1.91499
1 8 2.91237 0.642553 1.88174
1 18 0.947608 1.89212 1.43704
1 19 0.494553 2.6213 1.95491
1 9 3.47602 1.38984 2.22987
1 10 4.19164 2.0767 2.09434
1 11 3.32993 1.63887 1.84239
1 24 -0.467888 3.31379 1.41317
1 26 -0.761112 3.56611 1.5382
1 23 0.313533 3.68513 1.91319
1 20 0.736066 3.109 2.78498
1 22 0.969216 3.27743 2.56672
1 21 1.46046 2.40859 2.70421