#active polymer absorption in cylinder surface

       80  atoms
       79  bonds
       78  angles
        0  dihedrals
        0  impropers

        1  atom types
        1  bond types
        1  angle types
        0  dihedral types
        0  improper types

-20.0 20.0 xlo xhi
-20.0 20.0 ylo yhi
-40.0 40.0 zlo zhi

Masses

1 1

Atoms

1	1	1	6	0	0.990403
2	1	1	6.10013	0.355282	-0.0717076
3	1	1	6.17851	0.722143	-0.0629778
4	1	1	6.23376	1.09915	0.0307284
5	1	1	6.26463	1.4847	0.259797
6	1	1	6.26997	1.87705	-0.0348432
7	1	1	6.24881	2.27431	-0.0153736
8	1	1	6.20031	2.67447	-0.837081
9	1	1	6.12383	3.0754	0.494996
10	1	1	6.01891	3.47489	-0.955271
11	1	1	5.88528	3.87066	0.0514697
12	1	1	5.72289	4.26036	-0.100827
13	1	1	5.53191	4.64163	-0.0799878
14	1	1	5.31272	5.01207	-0.589197
15	1	1	5.06595	5.36933	-0.377146
16	1	1	4.79242	5.71109	0.614466
17	1	1	4.49319	6.03505	0.658247
18	1	1	4.16953	6.33906	0.945315
19	1	1	3.82291	6.62101	-0.0358324
20	1	1	3.45502	6.87896	-0.453413
21	1	1	3.06772	7.1111	-0.656768
22	1	1	2.66302	7.31578	0.609796
23	1	1	2.24313	7.49155	0.978883
24	1	1	1.81035	7.63713	0.494368
25	1	1	1.36713	7.75148	0.4468
26	1	1	0.915977	7.83377	-0.881388
27	1	1	0.459509	7.8834	-0.218347
28	1	1	0.000365982	7.9	-0.815824
29	1	1	-0.458779	7.88345	0.217407
30	1	1	-0.915254	7.83388	-0.0755936
31	1	1	-1.36641	7.75164	0.673984
32	1	1	-1.80965	7.63734	0.832931
33	1	1	-2.24245	7.4918	0.495494
34	1	1	-2.66237	7.31608	0.0564417
35	1	1	-3.06709	7.11145	-0.15525
36	1	1	-3.45442	6.87935	-0.128019
37	1	1	-3.82234	6.62144	0.449381
38	1	1	-4.16899	6.33952	-0.384462
39	1	1	-4.49269	6.03555	0.203044
40	1	1	-4.79196	5.71162	0.482214
41	1	1	-5.06554	5.36989	-0.0145083
42	1	1	-5.31235	5.01265	-0.640086
43	1	1	-5.53158	4.64223	0.470128
44	1	1	-5.72261	4.26098	0.962331
45	1	1	-5.88504	3.87129	-0.762589
46	1	1	-6.01872	3.47553	0.384527
47	1	1	-6.12369	3.07604	0.272497
48	1	1	-6.20022	2.6751	-0.353784
49	1	1	-6.24875	2.27494	0.205573
50	1	1	-6.26996	1.87768	-0.395057
51	1	1	-6.26466	1.48532	-0.359713
52	1	1	-6.23383	1.09976	-0.0922737
53	1	1	-6.17862	0.722736	-0.111947
54	1	1	-6.10028	0.355857	0.65023
55	1	1	-6.00018	0.000555938	0.19117
56	1	1	-5.87977	-0.341901	-0.088372
57	1	1	-5.74059	-0.67042	0.862604
58	1	1	-5.5842	-0.984083	0.546904
59	1	1	-5.41222	-1.28215	-0.253526
60	1	1	-5.22624	-1.56406	-0.428295
61	1	1	-5.02787	-1.82941	-0.957158
62	1	1	-4.81868	-2.07798	-0.716046
63	1	1	-4.60019	-2.30969	0.664595
64	1	1	-4.37386	-2.52462	-0.393429
65	1	1	-4.14107	-2.72297	-0.228425
66	1	1	-3.90311	-2.90508	0.804348
67	1	1	-3.66117	-3.07138	-0.34613
68	1	1	-3.41634	-3.2224	-0.611913
69	1	1	-3.16955	-3.35875	-0.648425
70	1	1	-2.92166	-3.48107	-0.317396
71	1	1	-2.67337	-3.59006	0.364029
72	1	1	-2.42527	-3.68646	-0.0118263
73	1	1	-2.1778	-3.77099	-0.568829
74	1	1	-1.93131	-3.84435	-0.248517
75	1	1	-1.68601	-3.90724	0.055985
76	1	1	-1.44201	-3.96031	-0.301562
77	1	1	-1.19933	-4.00414	0.528027
78	1	1	-0.957883	-4.03925	0.220752
79	1	1	-0.717522	-4.06609	0.47652
80	1	1	-0.47803	-4.085	-0.596936

Bonds

1	1	1	2
2	1	2	3
3	1	3	4
4	1	4	5
5	1	5	6
6	1	6	7
7	1	7	8
8	1	8	9
9	1	9	10
10	1	10	11
11	1	11	12
12	1	12	13
13	1	13	14
14	1	14	15
15	1	15	16
16	1	16	17
17	1	17	18
18	1	18	19
19	1	19	20
20	1	20	21
21	1	21	22
22	1	22	23
23	1	23	24
24	1	24	25
25	1	25	26
26	1	26	27
27	1	27	28
28	1	28	29
29	1	29	30
30	1	30	31
31	1	31	32
32	1	32	33
33	1	33	34
34	1	34	35
35	1	35	36
36	1	36	37
37	1	37	38
38	1	38	39
39	1	39	40
40	1	40	41
41	1	41	42
42	1	42	43
43	1	43	44
44	1	44	45
45	1	45	46
46	1	46	47
47	1	47	48
48	1	48	49
49	1	49	50
50	1	50	51
51	1	51	52
52	1	52	53
53	1	53	54
54	1	54	55
55	1	55	56
56	1	56	57
57	1	57	58
58	1	58	59
59	1	59	60
60	1	60	61
61	1	61	62
62	1	62	63
63	1	63	64
64	1	64	65
65	1	65	66
66	1	66	67
67	1	67	68
68	1	68	69
69	1	69	70
70	1	70	71
71	1	71	72
72	1	72	73
73	1	73	74
74	1	74	75
75	1	75	76
76	1	76	77
77	1	77	78
78	1	78	79
79	1	79	80

Angles

1	1	1	2	3
2	1	2	3	4
3	1	3	4	5
4	1	4	5	6
5	1	5	6	7
6	1	6	7	8
7	1	7	8	9
8	1	8	9	10
9	1	9	10	11
10	1	10	11	12
11	1	11	12	13
12	1	12	13	14
13	1	13	14	15
14	1	14	15	16
15	1	15	16	17
16	1	16	17	18
17	1	17	18	19
18	1	18	19	20
19	1	19	20	21
20	1	20	21	22
21	1	21	22	23
22	1	22	23	24
23	1	23	24	25
24	1	24	25	26
25	1	25	26	27
26	1	26	27	28
27	1	27	28	29
28	1	28	29	30
29	1	29	30	31
30	1	30	31	32
31	1	31	32	33
32	1	32	33	34
33	1	33	34	35
34	1	34	35	36
35	1	35	36	37
36	1	36	37	38
37	1	37	38	39
38	1	38	39	40
39	1	39	40	41
40	1	40	41	42
41	1	41	42	43
42	1	42	43	44
43	1	43	44	45
44	1	44	45	46
45	1	45	46	47
46	1	46	47	48
47	1	47	48	49
48	1	48	49	50
49	1	49	50	51
50	1	50	51	52
51	1	51	52	53
52	1	52	53	54
53	1	53	54	55
54	1	54	55	56
55	1	55	56	57
56	1	56	57	58
57	1	57	58	59
58	1	58	59	60
59	1	59	60	61
60	1	60	61	62
61	1	61	62	63
62	1	62	63	64
63	1	63	64	65
64	1	64	65	66
65	1	65	66	67
66	1	66	67	68
67	1	67	68	69
68	1	68	69	70
69	1	69	70	71
70	1	70	71	72
71	1	71	72	73
72	1	72	73	74
73	1	73	74	75
74	1	74	75	76
75	1	75	76	77
76	1	76	77	78
77	1	77	78	79
78	1	78	79	80
